<?xml version="1.0"?>
<VTKFile type="UnstructuredGrid"  version="0.1"  >
<UnstructuredGrid>
<Piece  NumberOfPoints="123" NumberOfCells="334">
<Points>
<DataArray  type="Float64"  NumberOfComponents="3"  format="ascii">1.5 1 0  1 1.5 0  0.5 1 0  1 0.5 0  1.490392640216601 1.097545160932725 0  1.461939766117156 1.191341716516883 0  1.415734805763726 1.277785117089806 0  1.353553389896936 1.353553391289612 0  1.277785115874317 1.415734806575889 0  1.191341715672039 1.461939766467102 0  1.09754516076499 1.490392640249966 0  0.9024548387862212 1.490392640160696 0  0.8086582832875089 1.461939766036132 0  0.7222148827586292 1.415734805662453 0  0.6464466085910705 1.353553389777618 0  0.5842651933693185 1.277785115792315 0  0.5380602335229968 1.191341715648135 0  0.5096073597491435 1.097545160760512 0  0.5096073598399629 0.9024548387829086 0  0.5380602339435037 0.8086582833366717 0  0.5842651943019839 0.7222148828118526 0  0.6464466102053202 0.6464466086081322 0  0.7222148841673618 0.5842651933962616 0  0.8086582844587492 0.5380602334787239 0  0.9024548393983773 0.5096073597175386 0  1.097545160937871 0.5096073597844225 0  1.191341716471175 0.5380602338639111 0  1.277785117041247 0.5842651942038279 0  1.353553391252985 0.6464466100664377 0  1.415734806537996 0.7222148840689713 0  1.461939766504547 0.8086582844183625 0  1.490392640281206 0.9024548393920656 0  0.8054512533105491 0.636024893944759 0  1.194230859552758 1.365751796861837 0  0.6361112373537354 1.194537340765525 0  1.358341959145728 0.807631836015416 0  0.5997600266027038 0.8745240909128823 0  1.394936003498585 1.119802527021377 0  0.8854489790618943 1.387183537494482 0  1.113066443302622 0.5976509606871095 0  1.41740518877178 0.9622568879784541 0  0.5809091365574443 1.044954531081261 0  1.042282526966586 1.403585930348269 0  1.261818568511893 0.6809731522266224 0  0.7279069395896907 1.325166900463011 0  1.313119163210833 1.253596848234748 0  0.9593120531975928 0.5784123563432331 0  0.6980151770602219 0.7514615542821266 0  0.796023050643113 1.377110127093288 0  0.8202260555878642 1.290909235897277 0  0.9312038064124799 1.298433676993443 0  0.8906798720720183 1.211295860876297 0  0.9894337589309807 1.224407378551754 0  0.9520079620582834 1.1345222790288 0  1.049176713509701 1.14773617090757 0  1.011805924791077 1.057357022756436 0  0.9149006539080858 1.044246068263758 0  0.9745048033629857 0.9667584482035383 0  1.071624120110073 0.9797609578350244 0  1.034285222455161 0.8891446608907146 0  0.8773426237096991 0.9537982876013191 0  1.131433766290632 0.9021270447231293 0  1.16877229398053 0.992753324672206 0  0.8178333443853791 1.031008313635308 0  1.094093517838221 0.8115033901834696 0  0.9969372241522612 0.7985298944702317 0  0.7806893964208301 0.9411328047704615 0  0.8400639471583139 0.8632440151379273 0  1.227132224288821 0.9157065282213419 0  1.262764100189838 1.006720159506026 0  1.206109681343257 1.083385242896432 0  0.7938175665291649 1.193806337289058 0  1.085217649957369 1.237063863178714 0  0.7261681421305293 1.016454723710845 0  1.05632550599434 0.7240757429175502 0  0.7463245676818133 0.8514730274109059 0  0.8069311927745009 0.7759902051876676 0  0.9596857345726812 0.7150104243117616 0  1.166633976466518 0.7288578422813625 0  1.191363639495598 0.8270716937813671 0  0.9371529429091644 0.8761714070986102 0  0.9016851399267283 0.7881975711641949 0  1.108963963318724 1.070330515289414 0  1.146085525562346 1.160668331393554 0  1.195703591970494 1.263649788583222 0  1.248818648860355 1.172160415952448 0  1.025492978402458 1.312235814568008 0  0.8545293466301196 1.120341417720472 0  1.299016884740509 1.096994365825411 0  0.7602294936749719 1.102484758652734 0  0.6779439506331655 0.9267459315443533 0  1.329735399244186 0.9188421594281537 0  0.6650551498062487 1.093262593223064 0  1.27100238525574 0.8465505698907054 0  0.8652001432375012 0.6938689141845699 0  1.112513611304311 1.32948219586373 0  0.7232521390429365 1.240724328932522 0  1.35133494133391 1.02343544742537 0  1.329892459214294 1.172226420774733 0  1.327577485910594 0.7241534228769392 0  1.187139572074929 0.6342997083409628 0  0.5862186644635049 0.9573372704960789 0  0.6214785269405715 0.7976760568146087 0  0.9579309469338719 1.427134262907307 0  1.266878424101068 1.330457326309062 0  1.125369390401986 1.410592372703143 0  1.41156299078949 0.8799688014464904 0  0.7277177794785585 0.6682231530246171 0  1.037336846465338 0.5671564861468122 0  0.8758831530963376 0.5934652266722817 0  1.262789669131012 0.7692064195120687 0  0.5859486233979138 1.124328268295699 0  1.430504355686945 1.042400978109589 0  1.022442359219015 0.6438436939504726 0  0.712183848005828 1.163341376060102 0  0.6477825814123428 1.004206215909391 0  0.6594866492206369 1.280044060079626 0  0.6699780156821711 0.8467226424001959 0  0.9315542977159936 0.6459740937700164 0  1.388000949697066 1.206455240128333 0  1.110625264102735 0.6707636845648559 0  0.7827764580192313 0.7047869650114327 0  0.9719923458382902 1.360878887472488 0  </DataArray>
</Points>
<Cells>
<DataArray  type="UInt32"  Name="connectivity"  format="ascii">0 4  0 31  0 40  0 112  1 10  1 11  1 42  1 103  2 17  2 18  2 41  2 101  3 24  3 25  3 46  3 108  4 5  4 37  4 112  5 6  5 37  5 119  6 7  6 45  6 119  7 8  7 45  7 104  8 9  8 33  8 104  9 10  9 33  9 105  10 42  10 105  11 12  11 38  11 103  12 13  12 38  12 48  13 14  13 44  13 48  14 15  14 44  14 116  15 16  15 34  15 116  16 17  16 34  16 111  17 41  17 111  18 19  18 36  18 101  19 20  19 36  19 102  20 21  20 47  20 102  21 22  21 47  21 107  22 23  22 32  22 107  23 24  23 32  23 109  24 46  24 109  25 26  25 39  25 108  26 27  26 39  26 100  27 28  27 43  27 100  28 29  28 43  28 99  29 30  29 35  29 99  30 31  30 35  30 106  31 40  31 106  32 94  32 107  32 109  32 121  33 84  33 95  33 104  33 105  34 92  34 96  34 111  34 114  34 116  35 91  35 93  35 99  35 106  35 110  36 90  36 101  36 102  36 117  37 88  37 97  37 98  37 112  37 119  38 48  38 49  38 50  38 103  38 122  39 100  39 108  39 113  39 120  40 91  40 97  40 106  40 112  41 92  41 101  41 111  41 115  42 86  42 95  42 103  42 105  42 122  43 78  43 99  43 100  43 110  44 48  44 49  44 96  44 116  45 84  45 85  45 98  45 104  45 119  46 108  46 109  46 113  46 118  47 75  47 76  47 102  47 107  47 117  47 121  48 49  49 50  49 51  49 71  49 96  50 51  50 52  50 86  50 122  51 52  51 53  51 71  51 87  52 53  52 54  52 72  52 86  53 54  53 55  53 56  53 87  54 55  54 72  54 82  54 83  55 56  55 57  55 58  55 82  56 57  56 60  56 63  56 87  57 58  57 59  57 60  57 80  58 59  58 61  58 62  58 82  59 61  59 64  59 65  59 80  60 63  60 66  60 67  60 80  61 62  61 64  61 68  61 79  62 68  62 69  62 70  62 82  63 66  63 73  63 87  63 89  64 65  64 74  64 78  64 79  65 74  65 77  65 80  65 81  66 67  66 73  66 75  66 90  67 75  67 76  67 80  67 81  68 69  68 79  68 91  68 93  69 70  69 88  69 91  69 97  70 82  70 83  70 85  70 88  71 87  71 89  71 96  71 114  72 83  72 84  72 86  72 95  73 89  73 90  73 92  73 115  74 77  74 78  74 113  74 120  75 76  75 90  75 117  76 81  76 94  76 121  77 81  77 94  77 113  77 118  78 79  78 100  78 110  78 120  79 93  79 110  80 81  81 94  82 83  83 84  83 85  84 85  84 95  84 104  85 88  85 98  86 95  86 122  87 89  88 97  88 98  89 92  89 114  90 101  90 115  90 117  91 93  91 97  91 106  92 111  92 114  92 115  93 110  94 109  94 118  94 121  95 105  96 114  96 116  97 112  98 119  99 110  100 120  101 115  102 117  103 122  107 121  108 113  109 118  113 118  113 120  </DataArray>
<DataArray  type="UInt32"  Name="offsets"  format="ascii">2 4 6 8 10 12 14 16 18 20 22 24 26 28 30 32 34 36 38 40 42 44 46 48 50 52 54 56 58 60 62 64 66 68 70 72 74 76 78 80 82 84 86 88 90 92 94 96 98 100 102 104 106 108 110 112 114 116 118 120 122 124 126 128 130 132 134 136 138 140 142 144 146 148 150 152 154 156 158 160 162 164 166 168 170 172 174 176 178 180 182 184 186 188 190 192 194 196 198 200 202 204 206 208 210 212 214 216 218 220 222 224 226 228 230 232 234 236 238 240 242 244 246 248 250 252 254 256 258 260 262 264 266 268 270 272 274 276 278 280 282 284 286 288 290 292 294 296 298 300 302 304 306 308 310 312 314 316 318 320 322 324 326 328 330 332 334 336 338 340 342 344 346 348 350 352 354 356 358 360 362 364 366 368 370 372 374 376 378 380 382 384 386 388 390 392 394 396 398 400 402 404 406 408 410 412 414 416 418 420 422 424 426 428 430 432 434 436 438 440 442 444 446 448 450 452 454 456 458 460 462 464 466 468 470 472 474 476 478 480 482 484 486 488 490 492 494 496 498 500 502 504 506 508 510 512 514 516 518 520 522 524 526 528 530 532 534 536 538 540 542 544 546 548 550 552 554 556 558 560 562 564 566 568 570 572 574 576 578 580 582 584 586 588 590 592 594 596 598 600 602 604 606 608 610 612 614 616 618 620 622 624 626 628 630 632 634 636 638 640 642 644 646 648 650 652 654 656 658 660 662 664 666 668 </DataArray>
<DataArray  type="UInt8"  Name="types"  format="ascii">3 3 3 3 3 3 3 3 3 3 3 3 3 3 3 3 3 3 3 3 3 3 3 3 3 3 3 3 3 3 3 3 3 3 3 3 3 3 3 3 3 3 3 3 3 3 3 3 3 3 3 3 3 3 3 3 3 3 3 3 3 3 3 3 3 3 3 3 3 3 3 3 3 3 3 3 3 3 3 3 3 3 3 3 3 3 3 3 3 3 3 3 3 3 3 3 3 3 3 3 3 3 3 3 3 3 3 3 3 3 3 3 3 3 3 3 3 3 3 3 3 3 3 3 3 3 3 3 3 3 3 3 3 3 3 3 3 3 3 3 3 3 3 3 3 3 3 3 3 3 3 3 3 3 3 3 3 3 3 3 3 3 3 3 3 3 3 3 3 3 3 3 3 3 3 3 3 3 3 3 3 3 3 3 3 3 3 3 3 3 3 3 3 3 3 3 3 3 3 3 3 3 3 3 3 3 3 3 3 3 3 3 3 3 3 3 3 3 3 3 3 3 3 3 3 3 3 3 3 3 3 3 3 3 3 3 3 3 3 3 3 3 3 3 3 3 3 3 3 3 3 3 3 3 3 3 3 3 3 3 3 3 3 3 3 3 3 3 3 3 3 3 3 3 3 3 3 3 3 3 3 3 3 3 3 3 3 3 3 3 3 3 3 3 3 3 3 3 3 3 3 3 3 3 3 3 3 3 3 3 3 3 3 3 3 3 3 3 3 3 3 3 3 3 3 3 3 3 3 3 3 3 3 3 </DataArray>
</Cells>
<CellData  Scalars="f">
<DataArray  type="Float64"  Name="f"  format="ascii">1 1 0 0 1 1 0 0 1 1 0 0 1 1 0 0 1 0 0 1 0 0 1 0 0 1 0 0 1 0 0 1 0 0 0 0 1 0 0 1 0 0 1 0 0 1 0 0 1 0 0 1 0 0 0 0 2 0 0 2 0 0 2 0 0 2 0 0 2 0 0 2 0 0 0 0 1 0 0 1 0 0 1 0 0 1 0 0 1 0 0 1 0 0 0 0 0 0 0 0 0 0 0 0 0 0 0 0 0 0 0 0 0 0 0 0 0 0 0 0 0 0 0 0 0 0 0 0 0 0 0 0 0 0 0 0 0 0 0 0 0 0 0 0 0 0 0 0 0 0 0 0 0 0 0 0 0 0 0 0 0 0 0 0 0 0 0 0 0 0 0 0 0 0 0 0 0 0 0 0 0 0 0 0 0 0 0 0 0 0 0 0 0 0 0 0 0 0 0 0 0 0 0 0 0 0 0 0 0 0 0 0 0 0 0 0 0 0 0 0 0 0 0 0 0 0 0 0 0 0 0 0 0 0 0 0 0 0 0 0 0 0 0 0 0 0 0 0 0 0 0 0 0 0 0 0 0 0 0 0 0 0 0 0 0 0 0 0 0 0 0 0 0 0 0 0 0 0 0 0 0 0 0 0 0 0 0 0 0 0 0 0 0 0 0 0 0 0 0 0 0 0 0 0 0 0 0 0 0 0 0 0 0 0 0 0 0 0 0 0 0 0 0 0 0 0 0 0 0 0 0 0 0 0 </DataArray>
</CellData>
</Piece>
</UnstructuredGrid>
</VTKFile>