<?xml version="1.0"?>
<VTKFile type="UnstructuredGrid"  version="0.1"  >
<UnstructuredGrid>
<Piece  NumberOfPoints="142" NumberOfCells="383">
<Points>
<DataArray  type="Float64"  NumberOfComponents="3"  format="ascii">0 0 0  1 0 0  1 1 0  0 1 0  0.09999999999981467 0 0  0.1999999999995579 0 0  0.2999999999992664 0 0  0.3999999999989749 0 0  0.4999999999986943 0 0  0.5999999999989468 0 0  0.69999999999921 0 0  0.7999999999994734 0 0  0.8999999999997368 0 0  1 0.09999999999981467 0  1 0.1999999999995579 0  1 0.2999999999992664 0  1 0.3999999999989749 0  1 0.4999999999986943 0  1 0.5999999999989468 0  1 0.69999999999921 0  1 0.7999999999994734 0  1 0.8999999999997368 0  0.8999999999995836 1 0  0.7999999999999998 1 0  0.7000000000006934 1 0  0.6000000000013869 1 0  0.5000000000020587 1 0  0.4000000000016644 1 0  0.3000000000012483 1 0  0.2000000000008322 1 0  0.100000000000416 1 0  0 0.8999999999995836 0  0 0.7999999999999998 0  0 0.7000000000006934 0  0 0.6000000000013869 0  0 0.5000000000020587 0  0 0.4000000000016644 0  0 0.3000000000012483 0  0 0.2000000000008322 0  0 0.100000000000416 0  0.4500000000018615 0.9133974596216763 0  0.09236792741065181 0.4605742807381246 0  0.5499999999988205 0.08660254037843171 0  0.9152217186777625 0.5468402906274979 0  0.6500000000008002 0.9133974596219514 0  0.08885430207258675 0.6509201999022066 0  0.9133974596218086 0.3499999999991206 0  0.3475303635242558 0.08190748804974743 0  0.9103703875043379 0.7586725654707323 0  0.250817301762687 0.9138693290130382 0  0.7459788032314767 0.07959225689678907 0  0.0866025403788042 0.2500000000010402 0  0.09056972474474825 0.8408174380938657 0  0.8495762630717529 0.9153227954948184 0  0.1504237369277891 0.08467720450543256 0  0.9170502595852439 0.150593231699023 0  0.3501362169619657 0.9134761045201358 0  0.4000227028286921 0.8268080267265111 0  0.5000037838059685 0.8267971038241898 0  0.4500044144404199 0.7401949275428534 0  0.550001366375149 0.7401931677420539 0  0.5000009634704368 0.6535903947466357 0  0.3996660322685221 0.6539624100660313 0  0.4492890262150227 0.5674132367139484 0  0.549881664948517 0.5670583805869823 0  0.4998617818618988 0.4804675945786104 0  0.5999572411359402 0.4804104109524936 0  0.3992029949383354 0.4808333042715237 0  0.4498441294682427 0.3938707812513982 0  0.3508014145113768 0.3944261231392701 0  0.649973151014685 0.5670034207262453 0  0.7044542185661746 0.4836609274158983 0  0.650735243284629 0.3943325211712261 0  0.2989417123120321 0.4807819782420577 0  0.400107590665014 0.3073017552560426 0  0.300000000002935 0.3071796769753505 0  0.4999919533568913 0.3072147840053003 0  0.4500000000024988 0.2205771365973901 0  0.7516124797967332 0.5701303236396067 0  0.7002642718023646 0.6541163631790494 0  0.753535810939751 0.3987254670893935 0  0.7000000000012393 0.307179676975659 0  0.8000000000003894 0.6535898384882735 0  0.7471434102059785 0.7386054505286099 0  0.5500000000021429 0.22057713659755 0  0.8109810542586346 0.3047536098154719 0  0.7487737367126566 0.2215627586077871 0  0.3001627035935243 0.8268888562051476 0  0.1994089234458852 0.8296981761685946 0  0.2499286045088535 0.7410578833522043 0  0.1494939110587455 0.7431601482469269 0  0.1967429917984385 0.6534863612147316 0  0.1475064708395241 0.5596891567283324 0  0.2461396475416222 0.5647585225755519 0  0.2006125504552574 0.4738835212418007 0  0.1629581819743507 0.380388647536347 0  0.3488732355465849 0.5672558538991079 0  0.6000008583640309 0.8267954148199792 0  0.8994183955992584 0.6528983889292933 0  0.6499999999991334 0.08660254037864022 0  0.9157740970141777 0.4494733817703521 0  0.8167956118738326 0.4899817334731329 0  0.4498499977837828 0.08393456559302379 0  0.5500007736960177 0.9133979063146327 0  0.2471893802660857 0.08407329706072988 0  0.1856343100128922 0.1794039491425674 0  0.9132469817449558 0.2508911402520001 0  0.6000202362686525 0.6536923509744806 0  0.7499293771789072 0.9137183489341748 0  0.3492006954957161 0.2288327370242559 0  0.5500650581848796 0.3939126281557886 0  0.6495716905027348 0.7400329444146923 0  0.6994408893754027 0.8265574229272842 0  0.6001320424719077 0.3072989805838411 0  0.815040741820152 0.8183024367054095 0  0.650000000001664 0.2205771365975231 0  0.3499640762739978 0.7407829625697138 0  0.2985524313230031 0.6535506656128902 0  0.1530678781041703 0.9178724624824317 0  0.9167537064254059 0.8508718537559959 0  0.08296629115975593 0.1498875452108657 0  0.1890575670468492 0.2940842362157938 0  0.8440933898604552 0.09385434397709341 0  0.2503952377171335 0.3884573638917699 0  0.07972803913531332 0.3493512757062616 0  0.8380531170040478 0.1999999999995607 0  0.8406928938275642 0.399278999198198 0  0.2898261153518075 0.1633999302292046 0  0.0657835875752161 0.7469795572487384 0  0.6999999999992164 0.1535898384871373 0  0.5999999999988372 0.153589838486751 0  0.4999999999989005 0.1535898384865978 0  0.3977345286928269 0.1553736159967032 0  0.8325961894321566 0.7301442841501419 0  0.06525626353167122 0.5500000000017229 0  0.8366096411895954 0.5826881150315608 0  0.2613872612265494 0.2359890604552144 0  0.926794919243098 0.9267949192431389 0  0.07320508075687601 0.9267949192431241 0  0.9267949192432314 0.07320508075664824 0  0.07320508075662228 0.07320508075678341 0  0.7753798093615706 0.1497198395936735 0  </DataArray>
</Points>
<Cells>
<DataArray  type="UInt32"  Name="connectivity"  format="ascii">0 4  0 39  0 140  1 12  1 13  1 139  2 21  2 22  2 137  3 30  3 31  3 138  4 5  4 54  4 140  5 6  5 54  5 104  6 7  6 47  6 104  7 8  7 47  7 102  8 9  8 42  8 102  9 10  9 42  9 99  10 11  10 50  10 99  11 12  11 50  11 122  12 122  12 139  13 14  13 55  13 139  14 15  14 55  14 106  15 16  15 46  15 106  16 17  16 46  16 100  17 18  17 43  17 100  18 19  18 43  18 98  19 20  19 48  19 98  20 21  20 48  20 119  21 119  21 137  22 23  22 53  22 137  23 24  23 53  23 108  24 25  24 44  24 108  25 26  25 44  25 103  26 27  26 40  26 103  27 28  27 40  27 56  28 29  28 49  28 56  29 30  29 49  29 118  30 118  30 138  31 32  31 52  31 138  32 33  32 52  32 128  33 34  33 45  33 128  34 35  34 45  34 134  35 36  35 41  35 134  36 37  36 41  36 124  37 38  37 51  37 124  38 39  38 51  38 120  39 120  39 140  40 56  40 57  40 58  40 103  41 92  41 94  41 95  41 124  41 134  42 99  42 102  42 130  42 131  43 98  43 100  43 101  43 135  44 97  44 103  44 108  44 112  45 90  45 91  45 92  45 128  45 134  46 85  46 100  46 106  46 126  47 102  47 104  47 127  47 132  48 98  48 114  48 119  48 133  49 56  49 87  49 88  49 118  50 99  50 122  50 129  50 141  51 105  51 120  51 121  51 124  52 88  52 90  52 118  52 128  52 138  53 108  53 114  53 119  53 137  54 104  54 105  54 120  54 140  55 106  55 122  55 125  55 139  56 57  56 87  57 58  57 59  57 87  57 116  58 59  58 60  58 97  58 103  59 60  59 61  59 62  59 116  60 61  60 97  60 107  60 111  61 62  61 63  61 64  61 107  62 63  62 96  62 116  62 117  63 64  63 65  63 67  63 96  64 65  64 66  64 70  64 107  65 66  65 67  65 68  65 110  66 70  66 71  66 72  66 110  67 68  67 69  67 73  67 96  68 69  68 74  68 76  68 110  69 73  69 74  69 75  69 123  70 71  70 78  70 79  70 107  71 72  71 78  71 80  71 101  72 80  72 81  72 110  72 113  73 93  73 94  73 96  73 123  74 75  74 76  74 77  74 109  75 109  75 121  75 123  75 136  76 77  76 84  76 110  76 113  77 84  77 109  77 131  77 132  78 79  78 82  78 101  78 135  79 82  79 83  79 107  79 111  80 81  80 85  80 101  80 126  81 85  81 86  81 113  81 115  82 83  82 98  82 133  82 135  83 111  83 112  83 114  83 133  84 113  84 115  84 130  84 131  85 86  85 106  85 125  85 126  86 115  86 125  86 129  86 141  87 88  87 89  87 116  88 89  88 90  88 118  89 90  89 91  89 116  89 117  90 91  90 128  91 92  91 93  91 117  92 93  92 94  92 134  93 94  93 96  93 117  94 95  94 123  95 121  95 123  95 124  96 117  97 103  97 111  97 112  98 133  98 135  99 129  99 130  100 101  100 126  101 126  101 135  102 131  102 132  104 105  104 127  105 120  105 121  105 127  105 136  106 125  107 111  108 112  108 114  109 127  109 132  109 136  110 113  111 112  112 114  113 115  114 119  114 133  115 129  115 130  116 117  118 138  119 137  120 140  121 123  121 124  121 136  122 125  122 139  122 141  125 141  127 132  127 136  129 130  129 141  130 131  131 132  </DataArray>
<DataArray  type="UInt32"  Name="offsets"  format="ascii">2 4 6 8 10 12 14 16 18 20 22 24 26 28 30 32 34 36 38 40 42 44 46 48 50 52 54 56 58 60 62 64 66 68 70 72 74 76 78 80 82 84 86 88 90 92 94 96 98 100 102 104 106 108 110 112 114 116 118 120 122 124 126 128 130 132 134 136 138 140 142 144 146 148 150 152 154 156 158 160 162 164 166 168 170 172 174 176 178 180 182 184 186 188 190 192 194 196 198 200 202 204 206 208 210 212 214 216 218 220 222 224 226 228 230 232 234 236 238 240 242 244 246 248 250 252 254 256 258 260 262 264 266 268 270 272 274 276 278 280 282 284 286 288 290 292 294 296 298 300 302 304 306 308 310 312 314 316 318 320 322 324 326 328 330 332 334 336 338 340 342 344 346 348 350 352 354 356 358 360 362 364 366 368 370 372 374 376 378 380 382 384 386 388 390 392 394 396 398 400 402 404 406 408 410 412 414 416 418 420 422 424 426 428 430 432 434 436 438 440 442 444 446 448 450 452 454 456 458 460 462 464 466 468 470 472 474 476 478 480 482 484 486 488 490 492 494 496 498 500 502 504 506 508 510 512 514 516 518 520 522 524 526 528 530 532 534 536 538 540 542 544 546 548 550 552 554 556 558 560 562 564 566 568 570 572 574 576 578 580 582 584 586 588 590 592 594 596 598 600 602 604 606 608 610 612 614 616 618 620 622 624 626 628 630 632 634 636 638 640 642 644 646 648 650 652 654 656 658 660 662 664 666 668 670 672 674 676 678 680 682 684 686 688 690 692 694 696 698 700 702 704 706 708 710 712 714 716 718 720 722 724 726 728 730 732 734 736 738 740 742 744 746 748 750 752 754 756 758 760 762 764 766 </DataArray>
<DataArray  type="UInt8"  Name="types"  format="ascii">3 3 3 3 3 3 3 3 3 3 3 3 3 3 3 3 3 3 3 3 3 3 3 3 3 3 3 3 3 3 3 3 3 3 3 3 3 3 3 3 3 3 3 3 3 3 3 3 3 3 3 3 3 3 3 3 3 3 3 3 3 3 3 3 3 3 3 3 3 3 3 3 3 3 3 3 3 3 3 3 3 3 3 3 3 3 3 3 3 3 3 3 3 3 3 3 3 3 3 3 3 3 3 3 3 3 3 3 3 3 3 3 3 3 3 3 3 3 3 3 3 3 3 3 3 3 3 3 3 3 3 3 3 3 3 3 3 3 3 3 3 3 3 3 3 3 3 3 3 3 3 3 3 3 3 3 3 3 3 3 3 3 3 3 3 3 3 3 3 3 3 3 3 3 3 3 3 3 3 3 3 3 3 3 3 3 3 3 3 3 3 3 3 3 3 3 3 3 3 3 3 3 3 3 3 3 3 3 3 3 3 3 3 3 3 3 3 3 3 3 3 3 3 3 3 3 3 3 3 3 3 3 3 3 3 3 3 3 3 3 3 3 3 3 3 3 3 3 3 3 3 3 3 3 3 3 3 3 3 3 3 3 3 3 3 3 3 3 3 3 3 3 3 3 3 3 3 3 3 3 3 3 3 3 3 3 3 3 3 3 3 3 3 3 3 3 3 3 3 3 3 3 3 3 3 3 3 3 3 3 3 3 3 3 3 3 3 3 3 3 3 3 3 3 3 3 3 3 3 3 3 3 3 3 3 3 3 3 3 3 3 3 3 3 3 3 3 3 3 3 3 3 3 3 3 3 3 3 3 3 3 3 3 3 3 3 3 3 3 3 3 3 3 3 3 3 3 3 3 3 3 3 3 </DataArray>
</Cells>
<CellData  Scalars="f">
<DataArray  type="Float64"  Name="f"  format="ascii">1 1 0 1 1 0 2 2 0 1 1 0 1 0 0 1 0 0 1 0 0 1 0 0 1 0 0 1 0 0 1 0 0 1 0 0 0 0 1 0 0 1 0 0 1 0 0 1 0 0 2 0 0 2 0 0 2 0 0 2 0 0 0 0 2 0 0 2 0 0 2 0 0 2 0 0 1 0 0 1 0 0 1 0 0 1 0 0 0 0 1 0 0 1 0 0 1 0 0 1 0 0 1 0 0 1 0 0 1 0 0 1 0 0 0 0 0 0 0 0 0 0 0 0 0 0 0 0 0 0 0 0 0 0 0 0 0 0 0 0 0 0 0 0 0 0 0 0 0 0 0 0 0 0 0 0 0 0 0 0 0 0 0 0 0 0 0 0 0 0 0 0 0 0 0 0 0 0 0 0 0 0 0 0 0 0 0 0 0 0 0 0 0 0 0 0 0 0 0 0 0 0 0 0 0 0 0 0 0 0 0 0 0 0 0 0 0 0 0 0 0 0 0 0 0 0 0 0 0 0 0 0 0 0 0 0 0 0 0 0 0 0 0 0 0 0 0 0 0 0 0 0 0 0 0 0 0 0 0 0 0 0 0 0 0 0 0 0 0 0 0 0 0 0 0 0 0 0 0 0 0 0 0 0 0 0 0 0 0 0 0 0 0 0 0 0 0 0 0 0 0 0 0 0 0 0 0 0 0 0 0 0 0 0 0 0 0 0 0 0 0 0 0 0 0 0 0 0 0 0 0 0 0 0 0 0 0 0 0 0 0 0 0 0 0 0 0 0 0 0 0 0 0 0 0 0 0 0 0 0 0 0 0 0 0 0 0 0 0 0 0 0 0 0 0 0 0 0 0 0 0 0 0 </DataArray>
</CellData>
</Piece>
</UnstructuredGrid>
</VTKFile>