<?xml version="1.0"?>
<VTKFile type="UnstructuredGrid"  version="0.1"  >
<UnstructuredGrid>
<Piece  NumberOfPoints="755" NumberOfCells="2162">
<Points>
<DataArray  type="Float64"  NumberOfComponents="3"  format="ascii">0 0 0  1.5 0 0  1.5 1 0  0 1 0  0.04999999999977746 0 0  0.09999999999956016 0 0  0.1499999999993809 0 0  0.1999999999991797 0 0  0.2499999999989126 0 0  0.2999999999987273 0 0  0.3499999999985491 0 0  0.399999999998371 0 0  0.449999999998193 0 0  0.4999999999980147 0 0  0.5499999999978366 0 0  0.5999999999976584 0 0  0.6499999999974803 0 0  0.6999999999973021 0 0  0.7499999999971457 0 0  0.799999999997316 0 0  0.8499999999975079 0 0  0.8999999999976995 0 0  0.9499999999978912 0 0  0.9999999999980829 0 0  1.049999999998275 0 0  1.099999999998466 0 0  1.149999999998658 0 0  1.19999999999885 0 0  1.249999999999041 0 0  1.299999999999233 0 0  1.349999999999425 0 0  1.399999999999616 0 0  1.449999999999808 0 0  1.5 0.04999999999989965 0  1.5 0.09999999999981467 0  1.5 0.1499999999997036 0  1.5 0.1999999999995579 0  1.5 0.2499999999994121 0  1.5 0.2999999999992664 0  1.5 0.3499999999991206 0  1.5 0.3999999999989749 0  1.5 0.4499999999988292 0  1.5 0.4999999999986943 0  1.5 0.5499999999988151 0  1.5 0.5999999999989468 0  1.5 0.6499999999990784 0  1.5 0.69999999999921 0  1.5 0.7499999999993417 0  1.5 0.7999999999994734 0  1.5 0.8499999999996051 0  1.5 0.8999999999997368 0  1.5 0.9499999999998684 0  1.4500000000006 1 0  1.400000000001087 1 0  1.350000000000967 1 0  1.300000000001011 1 0  1.250000000001582 1 0  1.2000000000015 1 0  1.150000000001359 1 0  1.100000000001219 1 0  1.050000000001079 1 0  1.000000000000967 1 0  0.9500000000011821 1 0  0.900000000001412 1 0  0.8500000000016418 1 0  0.8000000000018715 1 0  0.7500000000020797 1 0  0.7000000000019609 1 0  0.6500000000018209 1 0  0.6000000000016807 1 0  0.5500000000015408 1 0  0.5000000000014007 1 0  0.4500000000012605 1 0  0.4000000000011206 1 0  0.3500000000009804 1 0  0.3000000000008405 1 0  0.2500000000007003 1 0  0.2000000000005604 1 0  0.15000000000042 1 0  0.1000000000002801 1 0  0.05000000000014015 1 0  0 0.9499999999997918 0  0 0.8999999999995836 0  0 0.8499999999996529 0  0 0.7999999999999998 0  0 0.7500000000003466 0  0 0.7000000000006934 0  0 0.6500000000010401 0  0 0.6000000000013869 0  0 0.5500000000017335 0  0 0.5000000000020587 0  0 0.4500000000018723 0  0 0.4000000000016644 0  0 0.3500000000014564 0  0 0.3000000000012483 0  0 0.2500000000010403 0  0 0.2000000000008322 0  0 0.1500000000006241 0  0 0.100000000000416 0  0 0.05000000000020799 0  0.9250000000012971 0.9566987298109771 0  0.5249999999979332 0.04330127018917685 0  0.7749999999972866 0.04330127018925373 0  0.6250000000017508 0.9566987298106568 0  0.9749999999978205 0.04330127018938494 0  0.05046656419827662 0.5228117209053441 0  1.449616618365923 0.5227265648786098 0  0.4250000000011802 0.9566987298106718 0  1.127164488002892 0.9550994813479058 0  0.04330127018940205 0.3250000000013523 0  1.17499999999843 0.04330127018974364 0  1.456698729810904 0.3249999999991935 0  0.3249999999984068 0.04330127018885375 0  0.04489742752298444 0.7222391450562149 0  1.457744649564124 0.6749999999991037 0  0.7750000000019757 0.9566987298109677 0  0.2750000000007704 0.9566987298106568 0  1.272997821336189 0.9580898624050709 0  0.04330127018937594 0.1750000000007099 0  1.324999999998266 0.04330127018979331 0  1.460169849164727 0.8279237746756547 0  1.455543497736751 0.1743449231945722 0  0.1745399000488094 0.04442715103591782 0  0.1771644880021411 0.9550994813474349 0  0.03957139431543431 0.4239049593108206 0  0.8749999999975746 0.04330127018933481 0  1.07499999999837 0.04330127018938792 0  1.025000000001023 0.9566987298108229 0  0.6749999999974032 0.04330127018909413 0  0.5229978213362628 0.9580898624045298 0  0.4249999999981576 0.04330127018897187 0  1.460428605683926 0.4239049593084945 0  0.0433012701889216 0.6250000000012135 0  0.03983015083361058 0.8279237746752176 0  1.374324642393997 0.9524610595713751 0  0.04240819999707222 0.9250814317316259 0  1.423066243269033 0.04218481522126466 0  0.04218481522091977 0.07693375673011657 0  1.457594099110503 0.9250779039483393 0  0.8249999999974491 0.04330127018933908 0  0.8499999999974533 0.08660254037860038 0  0.8999999999975514 0.08660254037865472 0  0.8749999999974692 0.1299038105679082 0  0.9249999999975019 0.1299038105679743 0  0.8999999999974323 0.1732050807571914 0  0.9499999999974522 0.1732050807572648 0  0.924999999997374 0.2165063509464611 0  0.8749999999973728 0.2165063509463932 0  0.8999999999973055 0.2598076211356501 0  0.8499999999973209 0.2598076211355778 0  0.8749999999972454 0.3031088913248171 0  0.8249999999972775 0.3031088913247452 0  0.8499999999971981 0.346410161513971 0  0.7999999999972373 0.3464101615139017 0  0.8999999999971584 0.3464101615140501 0  0.8749999999971159 0.3897114317031918 0  0.9249999999970631 0.3897114317032736 0  0.8999999999970263 0.4330127018924056 0  0.9499999999969605 0.4330127018924862 0  0.9249999999969287 0.4763139720816119 0  0.9749999999968555 0.4763139720816868 0  0.8749999999969942 0.476313972081532 0  0.9999999999968869 0.4330127018925722 0  1.024999999996776 0.4763139720817651 0  0.8999999999968988 0.5196152422707401 0  0.8499999999969496 0.5196152422706553 0  1.049999999996806 0.4330127018926571 0  1.07499999999669 0.4763139720818462 0  1.04999999999666 0.5196152422709521 0  0.874999999996863 0.5629165124598705 0  0.8249999999969032 0.5629165124597859 0  1.099999999996574 0.5196152422710361 0  1.074999999996546 0.5629165124601452 0  1.099999999996722 0.4330127018927425 0  0.8499999999968237 0.6062177826490114 0  0.7999999999968583 0.6062177826489384 0  0.7749999999969357 0.5629165124596989 0  0.7499999999968842 0.6062177826488646 0  0.7249999999969576 0.5629165124596182 0  0.6999999999968982 0.60621778264879 0  0.6749999999969722 0.5629165124595401 0  0.6499999999969099 0.6062177826487124 0  0.6249999999969855 0.5629165124594616 0  0.5999999999969211 0.6062177826486355 0  0.5749999999969957 0.5629165124593848 0  0.5499999999969305 0.6062177826485563 0  0.5249999999970079 0.562916512459304 0  0.5499999999970682 0.5196152422701398 0  0.4999999999970884 0.5196152422700625 0  0.4749999999970119 0.5629165124592024 0  0.5249999999971422 0.4763139720809028 0  0.4749999999971701 0.4763139720808235 0  0.499999999997223 0.4330127018916661 0  0.4499999999972527 0.4330127018915906 0  1.12499999999647 0.5629165124602293 0  0.4749999999973052 0.3897114317024353 0  0.4249999999973327 0.3897114317023556 0  0.3999999999972738 0.4330127018915132 0  0.3749999999973515 0.3897114317022812 0  1.099999999996434 0.606217782649353 0  0.7749999999973138 0.3031088913246823 0  0.3499999999973072 0.4330127018914421 0  1.149999999996361 0.6062177826494275 0  0.7249999999968253 0.6495190528380128 0  0.5749999999968582 0.6495190528378137 0  1.124999999996349 0.649519052838596 0  0.3999999999974058 0.3464101615131095 0  0.349999999997419 0.346410161513042 0  1.174999999996283 0.6495190528386593 0  1.174999999996415 0.5629165124602958 0  0.9749999999973881 0.2165063509465381 0  1.074999999996378 0.6495190528384903 0  0.5249999999972665 0.3897114317025154 0  0.374999999997471 0.3031088913238709 0  0.3249999999974812 0.3031088913237965 0  1.099999999996299 0.6928203230277502 0  1.049999999996313 0.692820323027644 0  0.7499999999972771 0.346410161513837 0  0.7249999999973539 0.3031088913246192 0  1.074999999996212 0.7361215932168821 0  1.024999999996242 0.7361215932167801 0  0.4249999999974575 0.3031088913239547 0  0.5249999999968606 0.6495190528377357 0  0.5499999999967928 0.6928203230270029 0  0.499999999996784 0.6928203230269276 0  0.5249999999967248 0.7361215932161548 0  0.4749999999967079 0.7358864190135241 0  0.5749999999967365 0.7361215932161743 0  0.4499999999967752 0.6927811273264 0  0.4249999999966962 0.735987254210846 0  0.399999999996771 0.692791400575819 0  0.3749999999967032 0.7358592087706801 0  0.3499999999967821 0.6927717718773417 0  0.3249999999967274 0.7360697706167481 0  0.2999999999968183 0.6928035940685687 0  0.2749999999967813 0.7361101679562277 0  0.2499999999968935 0.6928156306569601 0  0.2749999999969099 0.6495154826161885 0  0.824999999997404 0.1299038105678464 0  0.3999999999974897 0.2598076211347076 0  0.4499999999974811 0.2598076211347977 0  1.074999999996835 0.3897114317035472 0  1.12499999999676 0.3897114317036335 0  0.5749999999971371 0.4763139720809762 0  1.124999999996205 0.7361215932170098 0  0.299999999997424 0.3464101615129735 0  0.2749999999974952 0.3031088913237196 0  0.2499999999974221 0.3464101615128978 0  0.8249999999967641 0.6495190528381389 0  1.099999999996869 0.3464101615144347 0  1.149999999996812 0.3464101615145238 0  1.174999999996691 0.3897114317037232 0  1.199999999996733 0.3464101615146044 0  1.174999999996884 0.3031088913254146 0  1.224999999996793 0.3031088913254804 0  1.224999999996617 0.3897114317038151 0  1.199999999996919 0.2598076211362675 0  1.249999999996852 0.2598076211363354 0  0.2999999999975505 0.2598076211345223 0  0.2499999999975539 0.2598076211344635 0  0.2249999999968696 0.736118906944138 0  0.3478355119950965 0.780969744027361 0  1.274999999996744 0.3031088913255667 0  0.2249999999970161 0.6495176757389088 0  0.2499999999970084 0.6062169580950258 0  0.2999999999969842 0.6062170501858293 0  0.2749999999975837 0.2165063509452583 0  0.2253284930181509 0.2163166954113611 0  0.6999999999973193 0.3464101615137558 0  0.6749999999973972 0.3031088913245432 0  0.6999999999974313 0.2598076211354028 0  0.6499999999974776 0.2598076211353273 0  1.224999999996937 0.2165063509470928 0  1.174999999997036 0.2165063509470397 0  1.274999999996918 0.2165063509471719 0  0.2499999999967467 0.7794205114830135 0  0.5021644879989718 0.7809829161682418 0  1.099999999996118 0.7794228634061091 0  1.149999999996061 0.779422863406233 0  0.1999999999971003 0.6062174157063167 0  0.2249999999971216 0.5629163138766524 0  0.6749999999975076 0.2165063509461909 0  0.6249999999975631 0.21650635094
[...]
<CellData  Scalars="f">
<DataArray  type="Float64"  Name="f"  format="ascii">1 1 0 1 1 0 2 2 0 1 1 0 1 0 0 1 0 0 1 0 0 1 0 0 1 0 0 1 0 0 1 0 0 1 0 0 1 0 0 1 0 0 1 0 0 1 0 0 1 0 0 1 0 0 1 0 0 1 0 0 1 0 0 1 0 0 1 0 0 1 0 0 1 0 0 1 0 0 1 0 0 1 0 0 1 0 0 1 0 0 1 0 0 1 0 0 0 0 1 0 0 1 0 0 1 0 0 1 0 0 1 0 0 1 0 0 1 0 0 1 0 0 1 0 0 2 0 0 2 0 0 2 0 0 2 0 0 2 0 0 2 0 0 2 0 0 2 0 0 2 0 0 0 0 2 0 0 2 0 0 2 0 0 2 0 0 2 0 0 2 0 0 2 0 0 2 0 0 2 0 0 2 0 0 2 0 0 2 0 0 2 0 0 2 0 0 2 0 0 2 0 0 2 0 0 2 0 0 2 0 0 2 0 0 2 0 0 2 0 0 2 0 0 1 0 0 1 0 0 1 0 0 1 0 0 1 0 0 0 0 1 0 0 1 0 0 1 0 0 1 0 0 1 0 0 1 0 0 1 0 0 1 0 0 1 0 0 1 0 0 1 0 0 1 0 0 1 0 0 1 0 0 1 0 0 1 0 0 1 0 0 1 0 0 0 0 0 0 0 0 0 0 0 0 0 0 0 0 0 0 0 0 0 0 0 0 0 0 0 0 0 0 0 0 0 0 0 0 0 0 0 0 0 0 0 0 0 0 0 0 0 0 0 0 0 0 0 0 0 0 0 0 0 0 0 0 0 0 0 0 0 0 0 0 0 0 0 0 0 0 0 0 0 0 0 0 0 0 0 0 0 0 0 0 0 0 0 0 0 0 0 0 0 0 0 0 0 0 0 0 0 0 0 0 0 0 0 0 0 0 0 0 0 0 0 0 0 0 0 0 0 0 0 0 0 0 0 0 0 0 0 0 0 0 0 0 0 0 0 0 0 0 0 0 0 0 0 0 0 0 0 0 0 0 0 0 0 0 0 0 0 0 0 0 0 0 0 0 0 0 0 0 0 0 0 0 0 0 0 0 0 0 0 0 0 0 0 0 0 0 0 0 0 0 0 0 0 0 0 0 0 0 0 0 0 0 0 0 0 0 0 0 0 0 0 0 0 0 0 0 0 0 0 0 0 0 0 0 0 0 0 0 0 0 0 0 0 0 0 0 0 0 0 0 0 0 0 0 0 0 0 0 0 0 0 0 0 0 0 0 0 0 0 0 0 0 0 0 0 0 0 0 0 0 0 0 0 0 0 0 0 0 0 0 0 0 0 0 0 0 0 0 0 0 0 0 0 0 0 0 0 0 0 0 0 0 0 0 0 0 0 0 0 0 0 0 0 0 0 0 0 0 0 0 0 0 0 0 0 0 0 0 0 0 0 0 0 0 0 0 0 0 0 0 0 0 0 0 0 0 0 0 0 0 0 0 0 0 0 0 0 0 0 0 0 0 0 0 0 0 0 0 0 0 0 0 0 0 0 0 0 0 0 0 0 0 0 0 0 0 0 0 0 0 0 0 0 0 0 0 0 0 0 0 0 0 0 0 0 0 0 0 0 0 0 0 0 0 0 0 0 0 0 0 0 0 0 0 0 0 0 0 0 0 0 0 0 0 0 0 0 0 0 0 0 0 0 0 0 0 0 0 0 0 0 0 0 0 0 0 0 0 0 0 0 0 0 0 0 0 0 0 0 0 0 0 0 0 0 0 0 0 0 0 0 0 0 0 0 0 0 0 0 0 0 0 0 0 0 0 0 0 0 0 0 0 0 0 0 0 0 0 0 0 0 0 0 0 0 0 0 0 0 0 0 0 0 0 0 0 0 0 0 0 0 0 0 0 0 0 0 0 0 0 0 0 0 0 0 0 0 0 0 0 0 0 0 0 0 0 0 0 0 0 0 0 0 0 0 0 0 0 0 0 0 0 0 0 0 0 0 0 0 0 0 0 0 0 0 0 0 0 0 0 0 0 0 0 0 0 0 0 0 0 0 0 0 0 0 0 0 0 0 0 0 0 0 0 0 0 0 0 0 0 0 0 0 0 0 0 0 0 0 0 0 0 0 0 0 0 0 0 0 0 0 0 0 0 0 0 0 0 0 0 0 0 0 0 0 0 0 0 0 0 0 0 0 0 0 0 0 0 0 0 0 0 0 0 0 0 0 0 0 0 0 0 0 0 0 0 0 0 0 0 0 0 0 0 0 0 0 0 0 0 0 0 0 0 0 0 0 0 0 0 0 0 0 0 0 0 0 0 0 0 0 0 0 0 0 0 0 0 0 0 0 0 0 0 0 0 0 0 0 0 0 0 0 0 0 0 0 0 0 0 0 0 0 0 0 0 0 0 0 0 0 0 0 0 0 0 0 0 0 0 0 0 0 0 0 0 0 0 0 0 0 0 0 0 0 0 0 0 0 0 0 0 0 0 0 0 0 0 0 0 0 0 0 0 0 0 0 0 0 0 0 0 0 0 0 0 0 0 0 0 0 0 0 0 0 0 0 0 0 0 0 0 0 0 0 0 0 0 0 0 0 0 0 0 0 0 0 0 0 0 0 0 0 0 0 0 0 0 0 0 0 0 0 0 0 0 0 0 0 0 0 0 0 0 0 0 0 0 0 0 0 0 0 0 0 0 0 0 0 0 0 0 0 0 0 0 0 0 0 0 0 0 0 0 0 0 0 0 0 0 0 0 0 0 0 0 0 0 0 0 0 0 0 0 0 0 0 0 0 0 0 0 0 0 0 0 0 0 0 0 0 0 0 0 0 0 0 0 0 0 0 0 0 0 0 0 0 0 0 0 0 0 0 0 0 0 0 0 0 0 0 0 0 0 0 0 0 0 0 0 0 0 0 0 0 0 0 0 0 0 0 0 0 0 0 0 0 0 0 0 0 0 0 0 0 0 0 0 0 0 0 0 0 0 0 0 0 0 0 0 0 0 0 0 0 0 0 0 0 0 0 0 0 0 0 0 0 0 0 0 0 0 0 0 0 0 0 0 0 0 0 0 0 0 0 0 0 0 0 0 0 0 0 0 0 0 0 0 0 0 0 0 0 0 0 0 0 0 0 0 0 0 0 0 0 0 0 0 0 0 0 0 0 0 0 0 0 0 0 0 0 0 0 0 0 0 0 0 0 0 0 0 0 0 0 0 0 0 0 0 0 0 0 0 0 0 0 0 0 0 0 0 0 0 0 0 0 0 0 0 0 0 0 0 0 0 0 0 0 0 0 0 0 0 0 0 0 0 0 0 0 0 0 0 0 0 0 0 0 0 0 0 0 0 0 0 0 0 0 0 0 0 0 0 0 0 0 0 0 0 0 0 0 0 0 0 0 0 0 0 0 0 0 0 0 0 0 0 0 0 0 0 0 0 0 0 0 0 0 0 0 0 0 0 0 0 0 0 0 0 0 0 0 0 0 0 0 0 0 0 0 0 0 0 0 0 0 0 0 0 0 0 0 0 0 0 0 0 0 0 0 0 0 0 0 0 0 0 0 0 0 0 0 0 0 0 0 0 0 0 0 0 0 0 0 0 0 0 0 0 0 0 0 0 0 0 0 0 0 0 0 0 0 0 0 0 0 0 0 0 0 0 0 0 0 0 0 0 0 0 0 0 0 0 0 0 0 0 0 0 0 0 0 0 0 0 0 0 0 0 0 0 0 0 0 0 0 0 0 0 0 0 0 0 0 0 0 0 0 0 0 0 0 0 0 0 0 0 0 0 0 0 0 0 0 0 0 0 0 0 0 0 0 0 0 0 0 0 0 0 0 0 0 0 0 0 0 0 0 0 0 0 0 0 0 0 0 0 0 0 0 0 0 0 0 0 0 0 0 0 0 0 0 0 0 0 0 0 0 0 0 0 0 0 0 0 0 0 0 0 0 0 0 0 0 0 0 0 0 0 0 0 0 0 0 0 0 0 0 0 0 0 0 0 0 0 0 0 0 0 0 0 0 0 0 0 0 0 0 0 0 0 0 0 0 0 0 0 0 0 0 0 0 0 0 0 0 0 0 0 0 0 0 0 0 0 0 0 0 0 0 0 0 0 0 0 0 0 0 0 0 0 0 0 0 0 0 0 0 0 0 0 0 0 0 0 0 0 0 0 0 0 0 0 0 0 0 0 0 0 0 0 0 0 0 0 0 0 0 0 0 0 0 0 0 0 0 0 0 0 0 0 0 0 0 0 0 0 0 0 0 0 0 0 0 0 0 0 0 0 0 0 0 0 0 0 0 0 0 0 0 0 0 0 0 0 0 0 0 0 0 0 0 0 0 0 0 0 0 0 0 0 0 0 0 0 0 0 0 0 0 0 0 0 0 0 0 0 0 0 0 0 0 0 0 0 0 0 0 0 0 0 0 0 0 0 0 0 0 0 0 0 0 0 0 0 0 0 0 0 0 0 0 0 0 0 0 0 0 0 0 0 0 0 0 0 0 0 0 0 0 0 0 0 0 0 0 0 0 0 0 0 0 0 0 0 0 0 0 0 0 0 0 0 0 0 0 0 0 0 0 0 0 0 0 0 0 0 0 0 0 0 0 0 0 0 0 0 0 0 0 0 0 0 0 0 0 0 0 0 0 0 0 0 0 0 0 0 0 0 0 0 0 0 0 0 0 0 0 0 0 0 0 0 0 0 0 0 0 0 0 0 0 0 0 0 0 0 0 0 0 0 0 0 0 0 0 0 0 0 0 0 0 0 0 0 0 0 0 0 0 0 0 0 0 0 0 0 0 0 0 0 0 0 0 0 0 0 0 0 0 0 0 0 0 0 0 0 0 0 0 0 0 0 0 0 0 0 0 0 0 0 0 0 0 0 0 0 </DataArray>
</CellData>
</Piece>
</UnstructuredGrid>
</VTKFile>