<?xml version="1.0"?>
<VTKFile type="UnstructuredGrid"  version="0.1"  >
<UnstructuredGrid>
<Piece  NumberOfPoints="30" NumberOfCells="71">
<Points>
<DataArray  type="Float64"  NumberOfComponents="3"  format="ascii">0 0 0  1 0 0  1 1 0  0 1 0  0.2499999999994109 0 0  0.4999999999986918 0 0  0.7499999999993401 0 0  1 0.2499999999994109 0  1 0.4999999999986918 0  1 0.7499999999993401 0  0.7500000000003477 1 0  0.5000000000020616 1 0  0.2500000000010419 1 0  0 0.7500000000003477 0  0 0.5000000000020616 0  0 0.2500000000010419 0  0.3640932128839356 0.7867687832230401 0  0.2110423218192964 0.3753337416957952 0  0.614600373335793 0.2544869979106266 0  0.8080509614599705 0.6243689539557368 0  0.1979210047255828 0.6215671767908426 0  0.4308090314147043 0.5056502726999198 0  0.3712961061742477 0.2167990069479854 0  0.6139924015723901 0.7478815024664029 0  0.8112741566735273 0.3855439771726532 0  0.6557453848912771 0.5035863408410679 0  0.1830127018930938 0.8169872981072783 0  0.8169872981074585 0.8169872981071885 0  0.1830127018926979 0.1830127018931349 0  0.8351749060017322 0.1780061950165381 0  </DataArray>
</Points>
<Cells>
<DataArray  type="UInt32"  Name="connectivity"  format="ascii">0 4  0 15  0 28  1 6  1 7  1 29  2 9  2 10  2 27  3 12  3 13  3 26  4 5  4 22  4 28  5 6  5 18  5 22  6 18  6 29  7 8  7 24  7 29  8 9  8 19  8 24  9 19  9 27  10 11  10 23  10 27  11 12  11 16  11 23  12 16  12 26  13 14  13 20  13 26  14 15  14 17  14 20  15 17  15 28  16 20  16 21  16 23  16 26  17 20  17 21  17 22  17 28  18 21  18 22  18 24  18 25  18 29  19 23  19 24  19 25  19 27  20 21  20 26  21 22  21 23  21 25  22 28  23 25  23 27  24 25  24 29  </DataArray>
<DataArray  type="UInt32"  Name="offsets"  format="ascii">2 4 6 8 10 12 14 16 18 20 22 24 26 28 30 32 34 36 38 40 42 44 46 48 50 52 54 56 58 60 62 64 66 68 70 72 74 76 78 80 82 84 86 88 90 92 94 96 98 100 102 104 106 108 110 112 114 116 118 120 122 124 126 128 130 132 134 136 138 140 142 </DataArray>
<DataArray  type="UInt8"  Name="types"  format="ascii">3 3 3 3 3 3 3 3 3 3 3 3 3 3 3 3 3 3 3 3 3 3 3 3 3 3 3 3 3 3 3 3 3 3 3 3 3 3 3 3 3 3 3 3 3 3 3 3 3 3 3 3 3 3 3 3 3 3 3 3 3 3 3 3 3 3 3 3 3 3 3 </DataArray>
</Cells>
<CellData  Scalars="f">
<DataArray  type="Float64"  Name="f"  format="ascii">1 1 0 1 1 0 2 2 0 1 1 0 1 0 0 1 0 0 0 0 1 0 0 2 0 0 0 0 2 0 0 1 0 0 0 0 1 0 0 1 0 0 0 0 0 0 0 0 0 0 0 0 0 0 0 0 0 0 0 0 0 0 0 0 0 0 0 0 0 0 0 </DataArray>
</CellData>
</Piece>
</UnstructuredGrid>
</VTKFile>