<?xml version="1.0"?>
<VTKFile type="UnstructuredGrid"  version="0.1"  >
<UnstructuredGrid>
<Piece  NumberOfPoints="16" NumberOfCells="33">
<Points>
<DataArray  type="Float64"  NumberOfComponents="3"  format="ascii">0 -0.1124999999999999 0  0.3333333333333333 -0.1124999999999999 0  0.3333333333333333 0.2325 0  0 0.2325 0  0.6666666666666666 -0.1124999999999999 0  0.6666666666666666 0.2325 0  1 -0.1124999999999999 0  1 0.2325 0  0.3333333333333333 0.5774999999999999 0  0 0.5774999999999999 0  0.6666666666666666 0.5774999999999999 0  1 0.5774999999999999 0  0.3333333333333333 0.9224999999999998 0  0 0.9224999999999998 0  0.6666666666666666 0.9224999999999998 0  1 0.9224999999999998 0  </DataArray>
</Points>
<Cells>
<DataArray  type="UInt32"  Name="connectivity"  format="ascii">0 1  0 2  0 3  1 2  1 4  1 5  2 3  2 5  2 8  2 10  3 8  3 9  4 5  4 6  4 7  5 7  5 10  5 11  6 7  7 11  8 9  8 10  8 12  8 14  9 12  9 13  10 11  10 14  10 15  11 15  12 13  12 14  14 15  </DataArray>
<DataArray  type="UInt32"  Name="offsets"  format="ascii">2 4 6 8 10 12 14 16 18 20 22 24 26 28 30 32 34 36 38 40 42 44 46 48 50 52 54 56 58 60 62 64 66 </DataArray>
<DataArray  type="UInt8"  Name="types"  format="ascii">3 3 3 3 3 3 3 3 3 3 3 3 3 3 3 3 3 3 3 3 3 3 3 3 3 3 3 3 3 3 3 3 3 </DataArray>
</Cells>
<CellData  Scalars="f">
<DataArray  type="Float64"  Name="f"  format="ascii">1 0 1 0 1 0 0 0 0 0 0 1 0 1 0 0 0 0 1 1 0 0 0 0 0 1 0 0 0 1 2 2 2 </DataArray>
</CellData>
</Piece>
</UnstructuredGrid>
</VTKFile>