<?xml version="1.0"?>
<VTKFile type="UnstructuredGrid"  version="0.1"  >
<UnstructuredGrid>
<Piece  NumberOfPoints="261" NumberOfCells="1840">
<Points>
<DataArray  type="Float64"  NumberOfComponents="3"  format="ascii">0 0.7 0  1 0.7 0  1 1.7 0  0 1.7 0  0 0.7 1.05  1 0.7 1.05  1 1.7 1.05  0 1.7 1.05  0.1999999999995579 0.7 0  0.3999999999989749 0.7 0  0.5999999999989468 0.7 0  0.7999999999994734 0.7 0  1 0.8999999999988899 0  1 1.099999999996393 0  1 1.299999999996116 0  1 1.499999999998059 0  0.7999999999999998 1.7 0  0.6000000000013869 1.7 0  0.4000000000016644 1.7 0  0.2000000000008322 1.7 0  0 1.500000000001553 0  0 1.300000000003105 0  0 1.100000000002436 0  0 0.9000000000006672 0  0.1999999999995579 0.7 1.05  0.3999999999989749 0.7 1.05  0.5999999999989468 0.7 1.05  0.7999999999994734 0.7 1.05  1 0.8999999999988899 1.05  1 1.099999999996393 1.05  1 1.299999999996116 1.05  1 1.499999999998059 1.05  0.7999999999999998 1.7 1.05  0.6000000000013869 1.7 1.05  0.4000000000016644 1.7 1.05  0.2000000000008322 1.7 1.05  0 1.500000000001553 1.05  0 1.300000000003105 1.05  0 1.100000000002436 1.05  0 0.9000000000006672 1.05  0 0.7 0.1749999999996391  0 0.7 0.3499999999991125  0 0.7 0.5249999999986894  0 0.7 0.6999999999990902  0 0.7 0.874999999999621  1 0.7 0.1749999999996391  1 0.7 0.3499999999991125  1 0.7 0.5249999999986894  1 0.7 0.6999999999990902  1 0.7 0.874999999999621  1 1.7 0.1749999999996391  1 1.7 0.3499999999991125  1 1.7 0.5249999999986894  1 1.7 0.6999999999990902  1 1.7 0.874999999999621  0 1.7 0.1749999999996391  0 1.7 0.3499999999991125  0 1.7 0.5249999999986894  0 1.7 0.6999999999990902  0 1.7 0.874999999999621  0.5096679054963361 1.537244843820519 0  0.5096679054937154 0.8627551561802981 0  0.8419191893782521 1.188138366948367 0  0.173205080756505 1.200000000002771 0  0.1693544090114013 1.000847473858368 0  0.3294192907176898 1.096439982951446 0  0.3272292575433186 1.303107926520365 0  0.5196152422706098 1.200000000004128 0  0.8083986701194785 1.381920284682735 0  0.8517369372920186 1.000078179603916 0  0.1696224431573223 1.399529497995667 0  0.6938098008013319 1.538030565056198 0  0.3141341159712045 1.517765603723267 0  0.3161392851938116 0.8881003643272537 0  0.7056570145200152 0.8912596090852897 0  0.5995233931631876 1.035791153246002 0  0.6104699881781588 1.379566369728419 0  0.6732050807582419 1.230452300591074 0  0.8535898384844542 1.553589838483934 0  0.1464101615149359 0.8464101615152332 0  0.8535898384873846 0.8464101615121771 0  0.1464101615128726 1.553589838487766 0  0.4581232296204057 1.010249775785432 0  0.4581232296229551 1.389750224215858 0  0.7272421105043604 1.090768056460385 0  0.509667905496336 1.537244843820519 1.05  0.5096679054937153 0.8627551561802981 1.05  0.8419191893782522 1.188138366948367 1.05  0.173205080756505 1.200000000002771 1.05  0.1693544090114013 1.000847473858368 1.05  0.3294192907176899 1.096439982951446 1.05  0.3272292575433186 1.303107926520364 1.05  0.51961524227061 1.200000000004127 1.05  0.8083986701194785 1.381920284682735 1.05  0.8517369372920187 1.000078179603916 1.05  0.1696224431573223 1.399529497995667 1.05  0.6938098008013316 1.538030565056198 1.05  0.3141341159712045 1.517765603723266 1.05  0.3161392851938115 0.8881003643272537 1.05  0.7056570145200154 0.8912596090852897 1.05  0.5995233931631877 1.035791153246002 1.05  0.6104699881781588 1.379566369728419 1.05  0.6732050807582421 1.230452300591075 1.05  0.8535898384844542 1.553589838483934 1.05  0.1464101615149359 0.8464101615152332 1.05  0.8535898384873846 0.8464101615121771 1.05  0.1464101615128729 1.553589838487766 1.05  0.4581232296204055 1.010249775785432 1.05  0.4581232296229552 1.389750224215859 1.05  0.7272421105043605 1.090768056460386 1.05  0.4974440664459092 0.7 0.8660410854315492  0.1515544456618655 0.7 0.4374999999989009  0.8484455543381345 0.7 0.4374999999989009  0.4969140454473969 0.7 0.1723547626033256  0.8557069779219916 0.7 0.7830845948087293  0.142893737423492 0.7 0.783084594808775  0.291248000328227 0.7 0.1781753406825723  0.4085556587583386 0.7 0.3417777282704095  0.5837165194669388 0.7 0.3416493731424093  0.4946248261384427 0.7 0.5032142924317309  0.7047143608071712 0.7 0.1785001984620113  0.6893596285118839 0.7 0.5155814578371062  0.5828322026945738 0.7 0.6888119977752405  0.4109896743771285 0.7 0.6913221044917186  0.853809414877426 0.7 0.6101943421068868  0.8595140535907613 0.7 0.268999575324772  0.1454995359294062 0.7 0.6085741706283498  0.6999287047924263 0.7 0.8714442782749274  0.2979197663684535 0.7 0.871700411613465  0.139015919195351 0.7 0.2688231227416968  0.3048284104023114 0.7 0.5188211313189147  0.7363273857596603 0.7 0.693823334160578  0.7371500233429779 0.7 0.3484461209530399  0.2604262249001583 0.7 0.6947004825722447  0.1281627007583007 0.7 0.9259570012843721  0.8711271365427783 0.7 0.9259057746166555  0.8728456828794813 0.7 0.1244999547572845  0.1260527839046272 0.7 0.1243996926847816  0.2590404868692187 0.7 0.3490194646024989  0.5025559335546521 1.7 0.8660410854312676  0.8484455543381345 1.7 0.4374999999989009  0.1515544456618655 1.7 0.4374999999989009  0.5030859545530484 1.7 0.1723547626028949  0.1442930220781638 1.7 0.7830845948087336  0.8571062625766036 1.7 0.7830845948088225  0.7087519996718634 1.7 0.1781753406824001  0.5914443412420387 1.7 0.3417777282699458  0.4162834805335671 1.7 0.3416493731419722  0.5053751738622728 1.7 0.5032142924308671  0.2952856391931567 1.7 0.1785001984618769  0.3106403714885723 1.7 0.5155814578368124  0.4171677973060059 1.7 0.6888119977748147  0.5890103256233208 1.7 0.691322104491348  0.1461905851227803 1.7 0.6101943421068385  0.1404859464093644 1.7 0.2689995753247374  0.8545004640706968 1.7 0.6085741706282191  0.3000712952079431 1.7 0.8714442782748497  0.702080233631768 1.7 0.8717004116134652  0.860984080804676 1.7 0.268823122741678  0.6951715895979904 1.7 0.518821131318674  0.2636726142406931 1.7 0.6938233341604098  0.2628499766573051 1.7 0.34844612095286  0.7395737751000759 1.7 0.6947004825721058  0.8718372992416743 1.7 0.9259570012843815  0.1288728634573878 1.7 0.9259057746166408  0.1271543171206707 1.7 0.1244999547572507  0.8739472160953078 1.7 0.1243996926847434  0.7409595131309406 1.7 0.3490194646023198  0 1.200573730877263 0.8736510385702947  0 1.548445554338134 0.4374999999989009  0 0.8444848400755439 0.4374999999989714  0 1.197289907764985 0.1716974479939524  0 0.8493175851370164 0.7825971679893172  0 1.548445554337385 0.7874999999993557  0 0.9915130167386286 0.1779766318614375  0 1.106163667898033 0.3446433775688742  0 1.283040938392427 0.3417647514135143  0 1.192638578428242 0.4808348142832432  0 1.404590031155463 0.1784227789851928  0 0.8506107430578527 0.6116828613305711  0 1.006711321229659 0.6999999999987093  0 0.8379512318070819 0.2689123142246827  0 0.981277122341917 0.8972084921779433  0 1.221273478517093 0.6433492374556233  0 1.365373339782656 0.7704263103543966  0 1.376684532321824 0.5012699872477663  0 1.548445554337851 0.6124999999988898  0 1.559398233846942 0.2689866720787254  0 1.026076009490118 0.5097157558050147  0 1.419065437500456 0.9156795581539761  0 1.434431858010958 0.3455888379448199  0 1.40853370784735 0.6429411075850434  0 0.9606494372243979 0.3499999999991104  0 0.8261189414959201 0.9309611320333762  0 0.8258928497092755 0.1243777892171519  0 1.572797653000792 0.1244818902127114  0 1.573502198367879 0.9356359116305906  1 1.197444066443075 0.8660410854310812  1 0.8515544456618654 0.4374999999989009  1 1.548445554338134 0.4374999999989009  1 1.196914045444747 0.1723547626024466  1 1.555706977921294 0.7830845948086936  1 0.842893737422867 0.7830845948088667  1 0.9912480003267032 0.1781753406821853  1 1.108555658756012 0.3417777282694998  1 1.283716519464436 0.3416493731417337  1 1.194624826134935 0.5032142924300863  1 1.404714360805545 0.1785001984617413  1 1.389359628509826 0.5155814578366459  1 1.282832202691815 0.6888119977743763  1 1.11098967437474 0.6913221044911337  1 1.553809414876565 0.6101943421068043  1 1.55951405359016 0.2689995753246711  1 0.8454995359287066 0.6085741706281584  1 1.399928704790634 0.8714442782746651  1 0.997919766366838 0.8717004116135529  1 0.8390159191948168 0.2688231227416225  1 1.004828410400528 0.5188211313184118  1 1.436327385758027 0.693823334160237  1 1.43715002334162 0.3484461209527386  1 0.9604262248987357 0.6947004825720247  1 0.8281627007577189 0.9259570012844082  1 1.571127136541998 0.925905774616596  1 1.572845682878753 0.1244999547572103  1 0.8260527839040819 0.1243996926846894  1 0.9590404868679849 0.3490194646021241  0.4974503086326801 1.20002741006883 0.5484152735288634  0.6737839895766469 1.374777970705297 0.326722342973361  0.6742847812145844 1.026720419160305 0.3249303309673811  0.3259736046655583 1.374904101675249 0.3241969901670121  0.325147553596653 1.024838286631494 0.3245658419201772  0.6842874171901436 1.016233832653512 0.7381135435808058  0.6842225802291158 1.384745674346986 0.7358699340679394  0.3192052304795464 1.386806199037236 0.7398080628570298  0.3368552582794336 1.005824843080325 0.7441431510253279  0.2452281684504555 1.250101628239709 0.5344871361313325  0.7498423788775399 1.242542666678014 0.5328317691559981  0.5464717623193326 0.9490882388383125 0.5328999727809079  0.500326402537118 1.200863286292504 0.255122645172283  0.5444984700765038 1.449981905381349 0.5330170522996596  0.2171311104402838 1.482868889559716 0.5041600212014375  0.7842546795498816 1.484254679549882 0.5016189733775196  0.7836586693359034 0.9163413306640966 0.500495614083626  0.5244469102217393 1.200836144020983 0.798504439120317  0.2145676833346818 0.917823861618759 0.5038385823132239  0.776189762164991 1.201448741395512 0.2185034675337109  0.8009028222457328 1.501442577564048 0.2042335855144298  0.500684603821227 1.477114779160451 0.2195861223032157  0.8016088438646258 0.8989290324557485 0.2041384062639505  0.5003792725428478 0.9230987514065031 0.2197896812908568  0.1975971897300803 0.8980953980921993 0.2039406928012096  0.7753778766313585 1.20109237178300
[...]
<CellData  Scalars="f">
<DataArray  type="Float64"  Name="f"  format="ascii">1 2 1 1 2 1 0 0 0 1 2 1 1 2 1 0 0 0 1 1 1 1 1 1 0 0 0 1 1 1 1 1 1 0 0 0 1 2 1 1 2 1 0 0 0 1 2 1 1 2 1 0 0 0 1 1 1 1 1 1 0 0 0 1 1 1 1 1 1 0 0 0 1 2 1 0 0 0 2 1 2 1 0 0 0 2 1 2 1 0 0 0 2 1 0 0 0 2 1 1 1 0 0 0 1 1 1 1 0 0 0 1 1 1 1 0 0 0 1 1 0 0 0 1 1 1 1 0 0 0 1 1 1 1 0 0 0 1 1 1 1 0 0 0 1 1 0 0 0 1 1 1 1 0 0 0 1 1 1 1 0 0 0 1 1 1 1 0 0 0 1 1 0 0 0 1 1 2 1 0 0 0 2 1 2 1 0 0 0 2 1 2 1 0 0 0 2 1 0 0 0 2 1 1 1 0 0 0 1 1 1 1 0 0 0 1 1 1 1 0 0 0 1 1 0 0 0 1 1 1 1 0 0 0 1 1 1 1 0 0 0 1 1 1 1 0 0 0 1 1 0 0 0 1 1 1 1 0 0 0 1 1 1 1 0 0 0 1 1 1 1 0 0 0 1 1 0 0 0 1 2 1 2 0 0 0 1 2 1 2 0 0 0 1 2 1 2 0 0 0 1 2 1 2 0 0 0 1 2 0 0 0 1 2 1 2 0 0 0 1 2 1 2 0 0 0 1 2 1 2 0 0 0 1 2 1 2 0 0 0 1 2 0 0 0 1 1 1 1 0 0 0 1 1 1 1 0 0 0 1 1 1 1 0 0 0 1 1 1 1 0 0 0 1 1 0 0 0 1 1 1 1 0 0 0 1 1 1 1 0 0 0 1 1 1 1 0 0 0 1 1 1 1 0 0 0 1 1 0 0 0 1 1 0 0 1 0 0 1 0 0 0 1 0 0 1 0 0 1 0 0 0 0 0 1 0 0 1 0 0 1 0 0 0 1 0 0 1 0 1 0 0 0 0 1 0 0 1 0 0 0 0 0 0 0 0 1 0 0 1 0 1 0 0 0 0 0 0 0 0 0 0 0 0 1 0 1 0 0 1 0 0 0 0 0 0 0 0 0 0 0 0 1 1 0 1 1 0 0 0 0 1 1 0 1 0 0 0 0 0 0 0 0 0 0 1 1 0 0 0 0 0 0 0 0 0 0 1 0 0 0 0 0 0 0 0 0 0 0 0 0 0 0 0 0 0 0 0 0 0 0 0 0 0 0 0 0 0 0 0 0 0 0 1 0 0 0 0 0 0 0 0 1 0 0 0 0 0 0 0 0 0 0 0 0 0 0 0 0 0 0 0 0 0 0 0 0 0 0 0 0 0 0 0 0 0 0 0 0 0 0 0 0 0 0 0 0 0 0 0 0 0 0 0 0 0 0 0 0 0 0 0 0 0 1 0 0 1 0 0 1 0 0 0 0 0 1 0 0 1 0 0 1 0 0 0 0 0 1 0 0 1 0 0 1 0 0 0 0 0 1 0 0 1 0 1 0 0 0 0 1 0 0 1 0 0 0 0 0 0 0 0 1 0 0 1 0 1 0 0 0 0 0 0 0 0 0 1 0 1 0 0 1 0 0 0 0 0 0 0 0 0 0 0 0 1 1 0 1 1 0 0 0 0 1 1 0 1 0 0 0 0 0 0 0 0 0 0 0 0 0 1 1 0 0 0 0 0 0 0 0 0 0 1 0 0 0 0 0 0 0 0 0 0 0 0 0 0 0 0 0 0 0 0 0 0 0 0 0 0 0 0 0 0 0 0 0 0 0 0 1 0 0 0 0 0 0 0 0 1 0 0 0 0 0 0 0 0 0 0 0 0 0 0 0 0 0 0 0 0 0 0 0 0 0 0 0 0 0 0 0 0 0 0 0 0 0 0 0 0 0 0 0 0 0 0 0 0 0 0 0 0 0 0 0 0 0 0 0 0 2 2 0 2 0 0 0 2 0 0 2 0 0 2 0 0 0 0 0 0 2 2 0 0 0 2 0 0 0 0 0 0 0 0 0 2 0 2 0 2 0 0 2 0 0 2 2 0 0 0 0 0 2 0 0 2 2 0 0 0 0 0 0 0 0 0 2 0 0 2 2 0 0 0 0 2 0 0 2 0 2 0 0 0 0 0 0 0 0 0 0 0 0 2 0 2 0 0 2 0 0 0 0 0 0 0 0 0 0 0 0 2 0 2 0 2 0 0 2 2 0 0 0 0 2 0 2 0 0 0 0 0 0 0 2 0 0 0 0 0 0 0 2 0 0 2 0 0 0 0 0 0 0 0 0 0 0 0 0 0 0 0 0 0 0 0 0 0 2 0 0 0 0 0 0 0 0 0 0 0 0 0 0 0 0 0 0 0 0 0 0 0 0 0 0 0 0 0 0 0 0 0 0 0 0 0 0 0 0 0 0 0 0 0 0 0 0 0 0 0 0 0 1 1 0 1 0 0 0 1 0 0 1 0 0 1 0 0 0 0 0 0 0 0 1 1 0 0 0 1 0 0 0 0 0 0 0 1 0 1 0 1 0 0 1 0 0 1 1 0 0 0 0 0 0 0 1 0 0 1 1 0 0 0 0 0 0 0 0 0 1 0 0 1 1 0 0 0 0 1 0 0 1 0 1 0 0 0 0 0 0 0 0 0 0 0 0 1 0 1 0 0 1 0 0 0 0 0 0 0 0 0 0 0 0 1 0 1 0 1 0 0 1 1 0 0 0 0 1 0 0 1 0 0 0 0 0 0 1 0 0 0 0 0 0 0 0 0 0 0 0 1 0 0 0 1 0 0 0 0 0 0 0 0 0 0 0 0 0 0 0 0 0 0 0 0 0 0 0 0 0 0 1 0 0 0 0 0 0 0 0 0 0 0 0 0 0 0 0 0 0 0 0 0 0 0 0 0 0 0 0 0 0 0 0 0 0 0 0 0 0 0 0 0 0 0 0 0 1 1 0 0 1 0 1 0 0 1 1 0 0 1 0 0 0 0 1 0 1 0 1 0 0 0 0 1 0 1 0 1 0 0 1 0 1 0 1 0 0 1 1 0 1 0 1 0 0 0 1 0 0 1 1 0 0 0 0 1 0 1 0 0 1 0 0 0 0 0 0 0 0 0 0 0 0 1 0 0 1 0 0 1 0 0 0 0 0 0 0 0 0 0 0 0 1 1 0 0 0 0 1 1 0 0 0 0 1 0 0 0 0 0 0 1 0 0 0 0 0 0 0 0 0 0 0 0 0 1 0 1 0 0 0 0 0 0 0 0 0 0 0 0 0 0 1 0 0 0 0 0 0 0 0 0 0 0 0 0 0 0 0 0 0 0 0 0 0 0 0 0 0 0 0 0 1 1 0 1 0 0 0 1 0 1 0 1 0 0 0 0 1 1 0 0 1 0 0 0 0 1 0 1 0 1 0 0 1 0 1 1 0 0 0 1 0 1 1 0 0 0 1 0 0 1 1 0 0 0 0 1 0 0 1 0 1 0 0 0 0 0 0 0 0 0 0 0 0 1 0 1 0 0 1 0 0 0 0 0 0 0 0 0 0 0 0 1 0 1 0 1 0 0 1 1 0 0 0 0 1 0 1 0 0 0 0 0 0 0 1 0 0 0 0 0 0 0 0 0 0 1 0 0 0 1 0 0 0 0 0 0 0 0 0 0 0 0 0 0 0 0 1 0 0 0 0 0 0 0 0 0 0 0 0 0 0 0 0 0 0 0 0 0 0 0 0 0 0 0 0 0 0 0 0 0 0 0 0 0 0 0 0 0 0 0 0 0 0 0 0 0 0 0 0 0 0 0 0 0 0 0 0 0 0 0 0 0 0 0 0 0 0 0 0 0 0 0 0 0 0 0 0 0 0 0 0 0 0 0 0 0 0 0 0 0 0 0 0 0 0 0 0 0 0 0 0 0 0 0 0 0 0 0 0 0 0 0 0 0 0 0 0 0 0 0 0 0 0 0 0 0 0 0 0 0 0 0 0 0 0 0 0 0 0 0 0 0 0 0 0 0 0 0 0 0 0 0 0 0 0 0 0 0 0 0 0 0 0 0 0 0 0 0 0 0 0 0 0 0 0 0 0 0 0 0 0 0 0 0 0 0 </DataArray>
</CellData>
</Piece>
</UnstructuredGrid>
</VTKFile>