<?xml version="1.0"?>
<VTKFile type="UnstructuredGrid"  version="0.1"  >
<UnstructuredGrid>
<Piece  NumberOfPoints="210" NumberOfCells="560">
<Points>
<DataArray  type="Float64"  NumberOfComponents="3"  format="ascii">0.5 0.7 0  1 0.7 0  1 1.25 0  0.5 1.25 0  0.51 0.7 0  0.52 0.7 0  0.53 0.7 0  0.54 0.7 0  0.55 0.7 0  0.5600000000000001 0.7 0  0.5700000000000001 0.7 0  0.58 0.7 0  0.59 0.7 0  0.6 0.7 0  0.61 0.7 0  0.62 0.7 0  0.63 0.7 0  0.64 0.7 0  0.65 0.7 0  0.66 0.7 0  0.67 0.7 0  0.6799999999999999 0.7 0  0.6899999999999999 0.7 0  0.7 0.7 0  0.71 0.7 0  0.72 0.7 0  0.73 0.7 0  0.74 0.7 0  0.75 0.7 0  0.76 0.7 0  0.77 0.7 0  0.78 0.7 0  0.79 0.7 0  0.8 0.7 0  0.8100000000000001 0.7 0  0.8200000000000001 0.7 0  0.8300000000000001 0.7 0  0.8400000000000001 0.7 0  0.8500000000000001 0.7 0  0.86 0.7 0  0.87 0.7 0  0.88 0.7 0  0.89 0.7 0  0.9 0.7 0  0.91 0.7 0  0.9199999999999999 0.7 0  0.9299999999999999 0.7 0  0.9399999999999999 0.7 0  0.95 0.7 0  0.96 0.7 0  0.97 0.7 0  0.98 0.7 0  0.99 0.7 0  1 0.7660468099197979 0  1 0.8568409532897054 0  1 0.9551307149669237 0  1 1.053420476644473 0  1 1.151710238322253 0  0.9000000000000002 1.25 0  0.8000000000000002 1.25 0  0.7000000000000002 1.25 0  0.6000000000000001 1.25 0  0.5 1.151710238322849 0  0.5 1.053420476645482 0  0.5 0.9551307149683832 0  0.5 0.8568409532906174 0  0.5 0.7660468099201265 0  0.7447491002274199 0.7079735176333656 0  0.6960000000000021 0.7076022306319368 0  0.7939999999999989 0.7076019613886801 0  0.845267118414426 0.7105659060930691 0  0.655 0.7086602540378444 0  0.6139999999999999 0.7077529963944618 0  0.8850000000000001 0.7086602540378444 0  0.5858333333333335 0.7100117798041941 0  0.9136343759007223 0.7111385853657839 0  0.5533751810292412 0.7114742458720161 0  0.9414673477247841 0.7095499929283492 0  0.9183032792315773 0.9135911983351811 0  0.5744537883945553 0.9023629505286226 0  0.7249999999999991 0.7086602540378444 0  0.7649999999999995 0.7086602540378444 0  0.8159999999999997 0.7076636345769809 0  0.6741666666666661 0.7096968814423353 0  0.6360000000000007 0.7078740924931287 0  0.8651929051252527 0.7081046540587184 0  0.737587523282772 1.170799508415827 0  0.528857349747704 0.7167542752443642 0  0.9657994772561835 0.7097059382976234 0  0.5893337540712038 1.094899870680816 0  0.915221074175133 1.087912895547787 0  0.9358682502549828 0.8076183850123758 0  0.8601549634577845 0.8638435490632483 0  0.5828349303481999 0.816996728677205 0  0.6349258398660484 0.8611570242170878 0  0.6453726371309514 0.9342787489503422 0  0.6948333431368102 0.879733102475609 0  0.7155741139153042 0.9577371686323488 0  0.6979656516367532 0.8279090193136653 0  0.7424823785688286 0.8396371616342545 0  0.7516739197890366 0.7837538856758508 0  0.6978943287982875 0.7723504260554723 0  0.7863887112258177 0.8100825973944978 0  0.7857411317497123 0.768996856958571 0  0.8170630839669959 0.7834380177548234 0  0.7419454646698628 0.7531288618474214 0  0.8113816013174806 0.7467542125716128 0  0.8406053364686473 0.7604469744599013 0  0.7851232156261523 0.7387564696269424 0  0.6622001554523134 1.006159939950925 0  0.7357328640910957 1.031118339805201 0  0.7879071357695788 0.9806120089475666 0  0.9467254936738946 0.7575271228758145 0  0.7989060797428589 0.8619837584100625 0  0.8375237965105234 0.7358777029862869 0  0.8622066308013604 0.7413222823942118 0  0.869516999814868 0.7690414762821978 0  0.8888140489050521 0.7492340493890903 0  0.8192014545078459 1.060830669195523 0  0.8690484664860041 0.99463118616021 0  0.9531767693775752 0.7229149835837939 0  0.9344029786994469 0.7288493151754885 0  0.6358693988807955 0.808777665086007 0  0.5929805394760053 0.7685231288517966 0  0.6843829961921803 1.093257358293339 0  0.577627437662854 0.9916833700380074 0  0.8019432440337549 0.7282437219249218 0  0.83670179998135 1.156372436496959 0  0.9059238602219615 0.7732058432854704 0  0.9765288200439504 0.7223135506681471 0  0.6500000000000004 1.174519626227732 0  0.916278772817448 0.7432018857582816 0  0.8823882778586625 0.7245527788504644 0  0.9034345656793569 0.7247095506598175 0  0.7610798891436353 0.9067113248715577 0  0.832566635638573 0.9202288376313043 0  0.7355824335607531 0.7098978710060848 0  0.7283706768100194 0.7191144582433475 0  0.7149141852756735 0.7195273129090388 0  0.7277691069881201 0.7338549757972594 0  0.7043911625828184 0.7349777702180894 0  0.7549999999999996 0.7086602540378434 0  0.7596695550670577 0.7207830940814985 0  0.7750092485811029 0.7198216202288321 0  0.8309734672990219 0.8189293439270637 0  0.7750018497162208 0.7074284256609034 0  0.714982837055135 0.7073695641969439 0  0.7055014474771115 0.7089347632720966 0  0.877774274114945 0.8080877712417912 0  0.8953388578327035 0.711743885029843 0  0.7846362426079527 0.7088776849124205 0  0.8045633205762496 0.7121708973667893 0  0.8509936785587626 0.7233367542865541 0  0.8249999999999972 0.7086602540378418 0  0.8200000000000014 0.720997664809222 0  0.6849999999999988 0.7086602540378459 0  0.680485612677972 0.7216831250609054 0  0.6650000000000009 0.719892274154367 0  0.6713839483671202 0.7359853731364638 0  0.6513433850388708 0.7343682620469687 0  0.6660722279355217 0.7595941079365246 0  0.6360839579731106 0.7533282959273635 0  0.6288250469989434 0.730960874709626 0  0.6650000000000011 0.7086602540378443 0  0.6455830994102854 0.7099231921786608 0  0.8360534236828848 0.7079235556241832 0  0.8562363712874516 0.7108683461093747 0  0.8747576181016969 0.7107534081941556 0  0.604285714285714 0.7093551830432699 0  0.6130661734200538 0.7198247114573642 0  0.6112862792356675 0.7422777570152691 0  0.5803613376411926 0.7405549525851256 0  0.5559960575240442 0.7727889945717159 0  0.5486262672046874 0.7397588709184069 0  0.5329765748077933 0.8039937290986967 0  0.5953522476615127 0.7209547006532502 0  0.6259844600598571 0.7126375184920768 0  0.7132514812688707 0.7531903505629782 0  0.5950000000000006 0.7086602540378431 0  0.7902288660725172 0.7203134382125358 0  0.6400279271392466 0.7201950812627849 0  0.570601216337511 0.7096479049988557 0  0.5665928004425268 0.7248489883160334 0  0.9261315121815419 0.7111496084041944 0  0.9191260293255002 0.7236739086047301 0  0.5797481870832154 0.7212036652714918 0  0.6962364955782303 0.7195083969486187 0  0.9540887188717084 0.7084341829619533 0  0.6739762290737562 0.7949796146028293 0  0.7670998321553182 0.7335376568789949 0  0.7507664840355487 0.7362223709833953 0  0.7431296223841312 0.7195009345403991 0  0.6614431080612126 0.8296595540473561 0  0.6902141445645925 0.7509449627884889 0  0.8358063361944326 0.7178936396395261 0  0.5735802162706556 1.178198121869143 0  0.9278748167577546 1.178344958525286 0  0.8487578581381348 0.7895234449787597 0  0.8654869456233607 0.7207886730019588 0  0.9452241872039702 1.003406608541333 0  0.6885422727541467 0.7326199256305133 0  0.9044815598825565 0.7095184042110888 0  0.7276218685043109 0.7704863224509299 0  0.7627213276110487 1.10247566244137 0  0.7643694441958351 0.7534825572040565 0  0.7152690627284954 0.7981860716221668 0  0.6212089433752472 0.777243721610154 0  0.6466421514476862 0.7787846810325757 0  0.9160916639220861 0.854566268297912 0  0.6519334361841436 0.7197573830617958 0  </DataArray>
</Points>
<Cells>
<DataArray  type="UInt32"  Name="connectivity"  format="ascii">0 4  0 66  1 52  1 53  1 129  2 57  2 58  2 196  3 61  3 62  3 195  4 5  4 66  4 87  5 6  5 87  6 7  6 87  7 8  7 76  7 87  8 9  8 76  9 10  9 76  9 181  10 11  10 181  11 12  11 74  11 181  12 13  12 74  12 178  13 14  13 168  13 178  14 15  14 72  14 168  15 16  15 72  15 176  16 17  16 84  16 176  17 18  17 84  17 164  18 19  18 71  18 164  19 20  19 71  19 163  20 21  20 83  20 163  21 22  21 83  21 155  22 23  22 68  22 155  23 24  23 68  23 147  24 25  24 146  24 147  25 26  25 80  25 146  26 27  26 80  26 136  27 28  27 67  27 136  28 29  28 67  28 141  29 30  29 81  29 141  30 31  30 81  30 145  31 32  31 145  31 150  32 33  32 69  32 150  33 34  33 69  33 151  34 35  34 82  34 151  35 36  35 82  35 153  36 37  36 153  36 165  37 38  37 70  37 165  38 39  38 70  38 166  39 40  39 85  39 166  40 41  40 85  40 167  41 42  41 73  41 167  42 43  42 73  42 149  43 44  43 149  43 201  44 45  44 75  44 201  45 46  45 75  45 183  46 47  46 77  46 183  47 48  47 77  48 49  48 77  48 187  49 50  49 88  49 187  50 51  50 88  51 52  51 88  51 129  52 129  53 54  53 91  53 112  53 129  54 55  54 78  54 91  54 208  55 56  55 78  55 199  56 57  56 90  56 199  57 90  57 196  58 59  58 127  58 196  59 60  59 86  59 127  60 61  60 86  60 130  61 130  61 195  62 63  62 89  62 195  63 64  63 89  63 125  64 65  64 79  64 125  65 66  65 79  65 93  65 174  66 87  66 172  66 173  66 174  67 136  67 141  67 191  68 147  68 155  68 186  69 150  69 151  69 179  70 152  70 165  70 166  70 194  71 157  71 163  71 164  71 209  72 168  72 169  72 176  73 132  73 149  73 167  74 175  74 178  74 181  74 185  75 133  75 183  75 184  75 201  76 87  76 173  76 181  76 182  77 120  77 121  77 183  77 187  78 92  78 119  78 135  78 199  78 208  79 93  79 94  79 95  79 125  80 136  80 137  80 138  80 146  81 141  81 142  81 143  81 145  82 151  82 153  82 154  83 155  83 156  83 157  83 163  84 164  84 176  84 180  85 166  85 167  85 198  86 124  86 127  86 130  86 203  87 173  88 120  88 129  88 187  89 109  89 124  89 125  89 130  89 195  90 118  90 119  90 127  90 196  90 199  91 112  91 128  91 148  91 208  92 113  92 135  92 144  92 148  92 208  93 94  93 122  93 123  93 172  93 174  93 206  94 95  94 96  94 122  94 192  95 96  95 97  95 109  95 125  96 97  96 98  96 99  96 134  96 192  97 109  97 110  97 111  97 134  98 99  98 188  98 192  98 205  99 100  99 102  99 113  99 134  99 205  100 102  100 103  100 105  100 202  100 204  100 205  101 160  101 177  101 188  101 193  101 202  101 205  102 103  102 104  102 113  102 144  103 104  103 106  103 108  103 204  104 106  104 107  104 144  104 197  105 139  105 177  105 190  105 202  105 204  106 107  106 108  106 114  106 126  106 154  107 114  107 115  107 116  107 197  108 126  108 143  108 179  108 189  108 204  109 110  109 124  109 125  110 111  110 118  110 124  110 203  111 118  111 119  111 134  111 135  112 120  112 121  112 128  112 129  112 131  113 134  113 135  113 144  114 115  114 152  114 154  114 194  115 116  115 117  115 132  115 152  115 198  116 117  116 128  116 148  116 197  117 128  117 131  117 132  117 133  118 119  118 127  118 203  119 135  119 199  120 121  120 129  120 187  121 131  121 183  121 184  122 188  122 192  122 206  122 207  123 170  123 171  123 172  123 206  124 130  124 203  126 151  126 154  126 179  127 196  127 203  128 131  128 148  130 195  131 133  131 184  132 133  132 149  132 167  132 198  133 149  133 184  133 201  134 135  136 137  136 191  137 138  137 139  137 191  138 139  138 140  138 146  138 147  138 186  139 140  139 177  139 190  139 191  140 177  140 186  140 193  140 200  141 142  141 191  142 143  142 189  142 190  142 191  143 145  143 150  143 179  143 189  144 148  144 197  145 150  146 147  147 186  148 197  148 208  149 201  150 179  151 154  151 179  152 166  152 194  152 198  153 154  153 165  153 194  154 194  155 156  155 186  156 157  156 158  156 186  156 200  157 158  157 159  157 163  157 209  158 159  158 160  158 193  158 200  159 160  159 161  159 162  159 180  159 209  160 161  160 188  160 193  160 207  161 162  161 170  161 206  161 207  162 169  162 170  162 176  162 180  164 180  164 209  165 194  166 198  167 198  168 169  168 175  168 178  169 170  169 175  169 176  170 171  170 175  170 206  171 172  171 173  171 175  171 182  171 185  172 173  172 174  173 182  175 178  175 185  176 180  177 193  177 202  180 209  181 182  181 185  182 185  183 184  186 200  188 192  188 205  188 207  189 190  189 204  190 191  190 204  193 200  202 205  206 207  </DataArray>
<DataArray  type="UInt32"  Name="offsets"  format="ascii">2 4 6 8 10 12 14 16 18 20 22 24 26 28 30 32 34 36 38 40 42 44 46 48 50 52 54 56 58 60 62 64 66 68 70 72 74 76 78 80 82 84 86 88 90 92 94 96 98 100 102 104 106 108 110 112 114 116 118 120 122 124 126 128 130 132 134 136 138 140 142 144 146 148 150 152 154 156 158 160 162 164 166 168 170 172 174 176 178 180 182 184 186 188 190 192 194 196 198 200 202 204 206 208 210 212 214 216 218 220 222 224 226 228 230 232 234 236 238 240 242 244 246 248 250 252 254 256 258 260 262 264 266 268 270 272 274 276 278 280 282 284 286 288 290 292 294 296 298 300 302 304 306 308 310 312 314 316 318 320 322 324 326 328 330 332 334 336 338 340 342 344 346 348 350 352 354 356 358 360 362 364 366 368 370 372 374 376 378 380 382 384 386 388 390 392 394 396 398 400 402 404 406 408 410 412 414 416 418 420 422 424 426 428 430 432 434 436 438 440 442 444 446 448 450 452 454 456 458 460 462 464 466 468 470 472 474 476 478 480 482 484 486 488 490 492 494 496 498 500 502 504 506 508 510 512 514 516 518 520 522 524 526 528 530 532 534 536 538 540 542 544 546 548 550 552 554 556 558 560 562 564 566 568 570 572 574 576 578 580 582 584 586 588 590 592 594 596 598 600 602 604 606 608 610 612 614 616 618 620 622 624 626 628 630 632 634 636 638 640 642 644 646 648 650 652 654 656 658 660 662 664 666 668 670 672 674 676 678 680 682 684 686 688 690 692 694 696 698 700 702 704 706 708 710 712 714 716 718 720 722 724 726 728 730 732 734 736 738 740 742 744 746 748 750 752 754 756 758 760 762 764 766 768 770 772 774 776 778 780 782 784 786 788 790 792 794 796 798 800 802 804 806 808 810 812 814 816 818 820 822 824 826 828 830 832 834 836 838 840 842 844 846 848 850 852 854 856 858 860 862 864 866 868 870 872 874 876 878 880 882 884 886 888 890 892 894 896 898 900 902 904 906 908 910 912 914 916 918 920 922 924 926 928 930 932 934 936 938 940 942 944 946 948 950 952 954 956 958 960 962 964 966 968 970 972 974 976 978 980 982 984 986 988 990 992 994 996 998 1000 1002 1004 1006 1008 1010 1012 1014 1016 1018 1020 1022 1024 1026 1028 1030 1032 1034 1036 1038 1040 1042 1044 1046 1048 1050 1052 1054 1056 1058 1060 1062 1064 1066 1068 1070 1072 1074 1076 1078 1080 1082 1084 1086 1088 1090 1092 1094 1096 1098 1100 1102 1104 1106 1108 1110 1112 1114 1116 1118 1120 </DataArray>
<DataArray  type="UInt8"  Name="types"  format="ascii">3 3 3 3 3 3 3 3 3 3 3 3 3 3 3 3 3 3 3 3 3 3 3 3 3 3 3 3 3 3 3 3 3 3 3 3 3 3 3 3 3 3 3 3 3 3 3 3 3 3 3 3 3 3 3 3 3 3 3 3 3 3 3 3 3 3 3 3 3 3 3 3 3 3 3 3 3 3 3 3 3 3 3 3 3 3 3 3 3 3 3 3 3 3 3 3 3 3 3 3 3 3 3 3 3 3 3 3 3 3 3 3 3 3 3 3 3 3 3 3 3 3 3 3 3 3 3 3 3 3 3 3 3 3 3 3 3 3 3 3 3 3 3 3 3 3 3 3 3 3 3 3 3 3 3 3 3 3 3 3 3 3 3 3 3 3 3 3 3 3 3 3 3 3 3 3 3 3 3 3 3 3 3 3 3 3 3 3 3 3 3 3 3 3 3 3 3 3 3 3 3 3 3 3 3 3 3 3 3 3 3 3 3 3 3 3 3 3 3 3 3 3 3 3 3 3 3 3 3 3 3 3 3 3 3 3 3 3 3 3 3 3 3 3 3 3 3 3 3 3 3 3 3 3 3 3 3 3 3 3 3 3 3 3 3 3 3 3 3 3 3 3 3 3 3 3 3 3 3 3 3 3 3 3 3 3 3 3 3 3 3 3 3 3 3 3 3 3 3 3 3 3 3 3 3 3 3 3 3 3 3 3 3 3 3 3 3 3 3 3 3 3 3 3 3 3 3 3 3 3 3 3 3 3 3 3 3 3 3 3 3 3 3 3 3 3 3 3 3 3 3 3 3 3 3 3 3 3 3 3 3 3 3 3 3 3 3 3 3 3 3 3 3 3 3 3 3 3 3 3 3 3 3 3 3 3 3 3 3 3 3 3 3 3 3 3 3 3 3 3 3 3 3 3 3 3 3 3 3 3 3 3 3 3 3 3 3 3 3 3 3 3 3 3 3 3 3 3 3 3 3 3 3 3 3 3 3 3 3 3 3 3 3 3 3 3 3 3 3 3 3 3 3 3 3 3 3 3 3 3 3 3 3 3 3 3 3 3 3 3 3 3 3 3 3 3 3 3 3 3 3 3 3 3 3 3 3 3 3 3 3 3 3 3 3 3 3 3 3 3 3 3 3 3 3 3 3 3 3 3 3 3 3 3 3 3 3 3 3 3 3 3 3 3 3 3 3 3 3 3 3 3 3 3 3 3 3 3 3 3 3 3 3 3 3 3 3 3 3 3 3 3 3 3 3 3 3 3 3 3 </DataArray>
</Cells>
<CellData  Scalars="f">
<DataArray  type="Float64"  Name="f"  format="ascii">2 2 1 1 0 1 1 0 1 1 0 2 0 0 2 0 2 0 2 0 0 2 0 2 0 0 2 0 2 0 0 2 0 0 2 0 0 2 0 0 2 0 0 2 0 0 2 0 0 2 0 0 2 0 0 2 0 0 2 0 0 2 0 0 2 0 0 2 0 0 2 0 0 2 0 0 2 0 0 1 0 0 1 0 0 1 0 0 1 0 0 1 0 0 1 0 0 1 0 0 1 0 0 1 0 0 1 0 0 1 0 0 1 0 0 1 0 0 1 0 0 1 0 0 1 0 0 1 0 0 1 0 0 1 0 0 1 0 1 0 0 1 0 0 1 0 1 0 0 0 1 0 0 0 1 0 0 0 1 0 0 1 0 0 0 0 1 0 0 1 0 0 1 0 0 0 0 1 0 0 1 0 0 1 0 0 1 0 0 0 0 0 0 0 0 0 0 0 0 0 0 0 0 0 0 0 0 0 0 0 0 0 0 0 0 0 0 0 0 0 0 0 0 0 0 0 0 0 0 0 0 0 0 0 0 0 0 0 0 0 0 0 0 0 0 0 0 0 0 0 0 0 0 0 0 0 0 0 0 0 0 0 0 0 0 0 0 0 0 0 0 0 0 0 0 0 0 0 0 0 0 0 0 0 0 0 0 0 0 0 0 0 0 0 0 0 0 0 0 0 0 0 0 0 0 0 0 0 0 0 0 0 0 0 0 0 0 0 0 0 0 0 0 0 0 0 0 0 0 0 0 0 0 0 0 0 0 0 0 0 0 0 0 0 0 0 0 0 0 0 0 0 0 0 0 0 0 0 0 0 0 0 0 0 0 0 0 0 0 0 0 0 0 0 0 0 0 0 0 0 0 0 0 0 0 0 0 0 0 0 0 0 0 0 0 0 0 0 0 0 0 0 0 0 0 0 0 0 0 0 0 0 0 0 0 0 0 0 0 0 0 0 0 0 0 0 0 0 0 0 0 0 0 0 0 0 0 0 0 0 0 0 0 0 0 0 0 0 0 0 0 0 0 0 0 0 0 0 0 0 0 0 0 0 0 0 0 0 0 0 0 0 0 0 0 0 0 0 0 0 0 0 0 0 0 0 0 0 0 0 0 0 0 0 0 0 0 0 0 0 0 0 0 0 0 0 0 0 0 0 0 0 0 0 0 0 0 0 0 0 0 0 0 0 0 0 0 0 0 0 0 0 0 0 0 0 0 0 0 0 0 0 0 0 0 0 0 0 0 0 0 0 0 0 0 0 0 0 0 0 </DataArray>
</CellData>
</Piece>
</UnstructuredGrid>
</VTKFile>