<?xml version="1.0"?>
<VTKFile type="UnstructuredGrid"  version="0.1"  >
<UnstructuredGrid>
<Piece  NumberOfPoints="2522" NumberOfCells="4862">
<Points>
<DataArray  type="Float64"  NumberOfComponents="3"  format="ascii">1 0.7 0  0 0.7 0  0 0.8 0  1 0.8 0  1 1.75 0  0 1.75 0  0.9899999999999584 0.7 0  0.9799999999999167 0.7 0  0.9699999999998751 0.7 0  0.9599999999998334 0.7 0  0.9499999999997918 0.7 0  0.9399999999997501 0.7 0  0.9299999999997085 0.7 0  0.9199999999996669 0.7 0  0.9099999999996251 0.7 0  0.8999999999995835 0.7 0  0.8899999999995418 0.7 0  0.879999999999508 0.7 0  0.8699999999995218 0.7 0  0.8599999999995834 0.7 0  0.8499999999996528 0.7 0  0.8399999999997222 0.7 0  0.8299999999997916 0.7 0  0.819999999999861 0.7 0  0.8099999999999303 0.7 0  0.7999999999999997 0.7 0  0.7900000000000691 0.7 0  0.7800000000001385 0.7 0  0.7700000000002079 0.7 0  0.7600000000002772 0.7 0  0.7500000000003466 0.7 0  0.7400000000004161 0.7 0  0.7300000000004854 0.7 0  0.7200000000005549 0.7 0  0.7100000000006242 0.7 0  0.7000000000006936 0.7 0  0.690000000000763 0.7 0  0.6800000000008324 0.7 0  0.6700000000009018 0.7 0  0.660000000000971 0.7 0  0.6500000000010404 0.7 0  0.6400000000011098 0.7 0  0.6300000000011791 0.7 0  0.6200000000012484 0.7 0  0.6100000000013178 0.7 0  0.6000000000013872 0.7 0  0.5900000000014565 0.7 0  0.5800000000015259 0.7 0  0.5700000000015952 0.7 0  0.5600000000016645 0.7 0  0.5500000000017339 0.7 0  0.5400000000018033 0.7 0  0.5300000000018725 0.7 0  0.5200000000019419 0.7 0  0.5100000000020113 0.7 0  0.500000000002059 0.7 0  0.490000000002039 0.7 0  0.4800000000019974 0.7 0  0.4700000000019557 0.7 0  0.4600000000019141 0.7 0  0.4500000000018726 0.7 0  0.4400000000018309 0.7 0  0.4300000000017893 0.7 0  0.4200000000017478 0.7 0  0.4100000000017061 0.7 0  0.4000000000016645 0.7 0  0.3900000000016228 0.7 0  0.3800000000015813 0.7 0  0.3700000000015397 0.7 0  0.360000000001498 0.7 0  0.3500000000014565 0.7 0  0.3400000000014148 0.7 0  0.3300000000013732 0.7 0  0.3200000000013316 0.7 0  0.3100000000012899 0.7 0  0.3000000000012484 0.7 0  0.2900000000012067 0.7 0  0.2800000000011651 0.7 0  0.2700000000011236 0.7 0  0.2600000000010819 0.7 0  0.2500000000010403 0.7 0  0.2400000000009987 0.7 0  0.2300000000009571 0.7 0  0.2200000000009155 0.7 0  0.2100000000008738 0.7 0  0.2000000000008322 0.7 0  0.1900000000007906 0.7 0  0.180000000000749 0.7 0  0.1700000000007074 0.7 0  0.1600000000006658 0.7 0  0.1500000000006242 0.7 0  0.1400000000005825 0.7 0  0.130000000000541 0.7 0  0.1200000000004994 0.7 0  0.1100000000004577 0.7 0  0.1000000000004161 0.7 0  0.09000000000037445 0.7 0  0.08000000000033292 0.7 0  0.07000000000029127 0.7 0  0.06000000000024963 0.7 0  0.0500000000002081 0.7 0  0.04000000000016646 0.7 0  0.03000000000012482 0.7 0  0.02000000000008328 0.7 0  0.01000000000004164 0.7 0  1 0.7099999999999697 0  1 0.7200000000000043 0  1 0.7299999999999306 0  1 0.7399999999999393 0  1 0.7499999999998482 0  1 0.7599999999998179 0  1 0.7699999999998872 0  1 0.7800000000000044 0  1 0.7900000000000738 0  0 0.7099999999999697 0  0 0.7200000000000043 0  0 0.7299999999999306 0  0 0.7399999999999393 0  0 0.7499999999998482 0  0 0.7599999999998179 0  0 0.7699999999998872 0  0 0.7800000000000044 0  0 0.7900000000000738 0  0.009999999999981104 0.8 0  0.01999999999996237 0.8 0  0.02999999999994307 0.8 0  0.03999999999992186 0.8 0  0.04999999999989966 0.8 0  0.05999999999987837 0.8 0  0.06999999999986051 0.8 0  0.07999999999984518 0.8 0  0.0899999999998299 0.8 0  0.09999999999981463 0.8 0  0.1099999999997994 0.8 0  0.1199999999997832 0.8 0  0.1299999999997609 0.8 0  0.1399999999997328 0.8 0  0.1499999999997036 0.8 0  0.1599999999996745 0.8 0  0.1699999999996453 0.8 0  0.1799999999996162 0.8 0  0.189999999999587 0.8 0  0.1999999999995579 0.8 0  0.2099999999995288 0.8 0  0.2199999999994996 0.8 0  0.2299999999994704 0.8 0  0.2399999999994413 0.8 0  0.2499999999994121 0.8 0  0.259999999999383 0.8 0  0.2699999999993538 0.8 0  0.2799999999993247 0.8 0  0.2899999999992955 0.8 0  0.2999999999992664 0.8 0  0.3099999999992372 0.8 0  0.3199999999992081 0.8 0  0.329999999999179 0.8 0  0.3399999999991498 0.8 0  0.3499999999991207 0.8 0  0.3599999999990915 0.8 0  0.3699999999990624 0.8 0  0.3799999999990332 0.8 0  0.3899999999990041 0.8 0  0.3999999999989749 0.8 0  0.4099999999989458 0.8 0  0.4199999999989167 0.8 0  0.4299999999988875 0.8 0  0.4399999999988584 0.8 0  0.4499999999988292 0.8 0  0.4599999999988 0.8 0  0.4699999999987708 0.8 0  0.4799999999987418 0.8 0  0.4899999999987126 0.8 0  0.4999999999986943 0.8 0  0.5099999999987098 0.8 0  0.5199999999987361 0.8 0  0.5299999999987626 0.8 0  0.5399999999987888 0.8 0  0.5499999999988152 0.8 0  0.5599999999988415 0.8 0  0.5699999999988679 0.8 0  0.5799999999988942 0.8 0  0.5899999999989205 0.8 0  0.5999999999989468 0.8 0  0.6099999999989731 0.8 0  0.6199999999989995 0.8 0  0.6299999999990258 0.8 0  0.6399999999990521 0.8 0  0.6499999999990784 0.8 0  0.6599999999991049 0.8 0  0.6699999999991312 0.8 0  0.6799999999991574 0.8 0  0.6899999999991837 0.8 0  0.6999999999992101 0.8 0  0.7099999999992365 0.8 0  0.7199999999992628 0.8 0  0.7299999999992892 0.8 0  0.7399999999993154 0.8 0  0.7499999999993417 0.8 0  0.7599999999993681 0.8 0  0.7699999999993945 0.8 0  0.7799999999994207 0.8 0  0.789999999999447 0.8 0  0.7999999999994734 0.8 0  0.8099999999994998 0.8 0  0.8199999999995261 0.8 0  0.8299999999995523 0.8 0  0.8399999999995788 0.8 0  0.8499999999996051 0.8 0  0.8599999999996314 0.8 0  0.8699999999996577 0.8 0  0.8799999999996841 0.8 0  0.8899999999997104 0.8 0  0.8999999999997367 0.8 0  0.9099999999997631 0.8 0  0.9199999999997894 0.8 0  0.9299999999998156 0.8 0  0.939999999999842 0.8 0  0.9499999999998684 0.8 0  0.9599999999998947 0.8 0  0.969999999999921 0.8 0  0.9799999999999475 0.8 0  0.9899999999999737 0.8 0  1 0.8101838103751594 0  1 0.821350135755019 0  1 0.8335937696958622 0  1 0.8470186433993108 0  1 0.8617387275360099 0  1 0.8778789772216324 0  1 0.8955764108874105 0  1 0.9149812582756285 0  1 0.9362582527170068 0  1 0.9595880156402263 0  1 0.9851685896950672 0  1 1.013217130767101 0  1 1.043971741934593 0  1 1.077693506094161 0  1 1.114668683706469 0  1 1.155211156838107 0  1 1.199665100973425 0  1 1.248407885529348 0  1 1.301853274139311 0  1 1.360454983756294 0  1 1.424710477453511 0  1 1.495165223607662 0  1 1.572417320218872 0  1 1.657122559609493 0  0.8999999999995836 1.75 0  0.7999999999999998 1.75 0  0.7000000000006934 1.75 0  0.6000000000013869 1.75 0  0.5000000000020587 1.75 0  0.4000000000016644 1.75 0  0.3000000000012483 1.75 0  0.2000000000008322 1.75 0  0.100000000000416 1.75 0  0 1.657122559610118 0  0 1.572417320220012 0  0 1.495165223609221 0  0 1.424710477455408 0  0 1.360454983758457 0  0 1.301853274141678 0  0 1.248407885531617 0  0 1.199665100975352 0  0 1.155211156839668 0  0 1.114668683707805 0  0 1.077693506095298 0  0 1.043971741935557 0  0 1.013217130767912 0  0 0.9851685896957447 0  0 0.9595880156407883 0  0 0.9362582527174683 0  0 0.9149812582760024 0  0 0.8955764108877091 0  0 0.877878977221866 0  0 0.8617387275361879 0  0 0.8470186433994404 0  0 0.8335937696959513 0  0 0.8213501357550733 0  0 0.8101838103751843 0  0.5349999999987761 0.8086470279936151 0  0.6155879228709644 0.8090896331604361 0  0.4555506621184562 0.8093932362605475 0  0.3749999999990478 0.8086602540378189 0  0.3049406389526129 0.8081286108899897 0  0.6854313965485377 0.8089097616635453 0  0.2457514938496607 0.8078339046207751 0  0.7449747965244862 0.809183867732732 0  0.1949999999995725 0.8086602540378189 0  0.79499999999946 0.808660254037867 0  0.8449999999995915 0.808660254037867 0  0.04883639719983065 1.267706536380297 0  0.9567260770565549 1.270970185616773 0  0.9709331232966921 1.098361966421258 0  0.03107954609855327 1.097113921012421 0  0.1457326682186989 0.8102168830357209 0  0.1054256983389121 0.8097360072495392 0  0.8847866642071307 0.8088353991299214 0  0.4149999999989312 0.8086602540378189 0  0.5749999999988812 0.8085929274645131 0  0.4949999999987035 0.8086602540378237 0  0.02117879716542239 0.9723783026682663 0  0.9788212028346711 0.9723783026676466 0  0.9260040216698929 0.8085418668799065 0  0.9839342410344447 0.9052788345815191 0  0.01904604336093942 0.9031177234527785 0  0.07510048347677457 0.8086889082984968 0  0.2745675274500092 0.807879732317764 0  0.3334164202665159 0.8082473899838948 0  0.71376908376486 0.8082748439688313 0  0.6547320600164828 0.8087094425996165 0  0.5505585167032325 1.671825397170275 0  0.9548717115684593 0.8085906918435189 0  0.0450242456994181 0.8072716882726748 0  0.05157242560881075 1.459739602356771 0  0.9456319834237223 1.459826056663585 0  0.9881691036599524 0.852756116184589 0  0.01111846135050431 0.8518908608210743 0  0.9632039604735196 1.178426177278311 0  0.03333482783436302 1.184847340271994 0  0.9741480589704473 1.029370314801884 0  0.02628646322004011 1.029051165940326 0  0.3455456392916966 1.666590445739343 0  0.9049999999997502 0.8084679009712619 0  0.124999999999772 0.8086602540378224 0  0.1629525392193163 0.8110818496936352 0  0.8650979516274696 0.8070571858449431 0  0.8244493761074718 0.8100686061047585 0  0.2153680558122836 0.8085182285800654 0  0.7748385425176607 0.8087452836900998 0  0.3548175375394872 0.8089739226419992 0  0.3949999999989893 0.8086602540378189 0  0.4349999999988729 0.8086602540378189 0  0.6348220012587669 0.8087573110000711 0  0.4749999999987562 0.8086602540378189 0  0.5949999999989332 0.8085096503404835 0  0.5145718472256995 0.808909233195115 0  0.554999999998828 0.8087095067127009 0  0.9755915972203233 0.8090919308194211 0  0.02492279318101736 0.807960699029625 0  0.7487304247374577 1.661052616314468 0  0.9894848691026767 0.8269137977386705 0  0.009882423095816413 0.8271151982363217 0  0.1423126335084363 1.668261948654951 0  0.934590417484344 1.61280980088045 0  0.2487228247555882 1.667695684957868 0  0.3003443725935964 1.59006602016402 0  0.3851921644755514 1.586168890634225 0  0.3428421523
[...]
<PointData  Scalars="f_134"> 
<DataArray  type="Float64"  Name="f_134"  format="ascii">1.0000000000000000e+00  1.0000000000000000e+00  1.0000000000000000e+00  1.0000000000000000e+00  0.0000000000000000e+00  0.0000000000000000e+00  1.0000000000000000e+00  1.0000000000000000e+00  1.0000000000000000e+00  1.0000000000000000e+00  1.0000000000000000e+00  1.0000000000000000e+00  1.0000000000000000e+00  1.0000000000000000e+00  1.0000000000000000e+00  1.0000000000000000e+00  1.0000000000000000e+00  1.0000000000000000e+00  1.0000000000000000e+00  1.0000000000000000e+00  1.0000000000000000e+00  1.0000000000000000e+00  1.0000000000000000e+00  1.0000000000000000e+00  1.0000000000000000e+00  1.0000000000000000e+00  1.0000000000000000e+00  1.0000000000000000e+00  1.0000000000000000e+00  1.0000000000000000e+00  1.0000000000000000e+00  1.0000000000000000e+00  1.0000000000000000e+00  1.0000000000000000e+00  1.0000000000000000e+00  1.0000000000000000e+00  1.0000000000000000e+00  1.0000000000000000e+00  1.0000000000000000e+00  1.0000000000000000e+00  1.0000000000000000e+00  1.0000000000000000e+00  1.0000000000000000e+00  1.0000000000000000e+00  1.0000000000000000e+00  1.0000000000000000e+00  1.0000000000000000e+00  1.0000000000000000e+00  1.0000000000000000e+00  1.0000000000000000e+00  1.0000000000000000e+00  1.0000000000000000e+00  1.0000000000000000e+00  1.0000000000000000e+00  1.0000000000000000e+00  1.0000000000000000e+00  1.0000000000000000e+00  1.0000000000000000e+00  1.0000000000000000e+00  1.0000000000000000e+00  1.0000000000000000e+00  1.0000000000000000e+00  1.0000000000000000e+00  1.0000000000000000e+00  1.0000000000000000e+00  1.0000000000000000e+00  1.0000000000000000e+00  1.0000000000000000e+00  1.0000000000000000e+00  1.0000000000000000e+00  1.0000000000000000e+00  1.0000000000000000e+00  1.0000000000000000e+00  1.0000000000000000e+00  1.0000000000000000e+00  1.0000000000000000e+00  1.0000000000000000e+00  1.0000000000000000e+00  1.0000000000000000e+00  1.0000000000000000e+00  1.0000000000000000e+00  1.0000000000000000e+00  1.0000000000000000e+00  1.0000000000000000e+00  1.0000000000000000e+00  1.0000000000000000e+00  1.0000000000000000e+00  1.0000000000000000e+00  1.0000000000000000e+00  1.0000000000000000e+00  1.0000000000000000e+00  1.0000000000000000e+00  1.0000000000000000e+00  1.0000000000000000e+00  1.0000000000000000e+00  1.0000000000000000e+00  1.0000000000000000e+00  1.0000000000000000e+00  1.0000000000000000e+00  1.0000000000000000e+00  1.0000000000000000e+00  1.0000000000000000e+00  1.0000000000000000e+00  1.0000000000000000e+00  1.0000000000000000e+00  1.0000000000000000e+00  1.0000000000000000e+00  1.0000000000000000e+00  1.0000000000000000e+00  1.0000000000000000e+00  1.0000000000000000e+00  1.0000000000000000e+00  1.0000000000000000e+00  1.0000000000000000e+00  1.0000000000000000e+00  1.0000000000000000e+00  1.0000000000000000e+00  1.0000000000000000e+00  1.0000000000000000e+00  1.0000000000000000e+00  1.0000000000000000e+00  1.0000000000000000e+00  1.0000000000000000e+00  1.0000000000000000e+00  1.0000000000000000e+00  1.0000000000000000e+00  1.0000000000000000e+00  1.0000000000000000e+00  1.0000000000000000e+00  1.0000000000000000e+00  1.0000000000000000e+00  1.0000000000000000e+00  1.0000000000000000e+00  1.0000000000000000e+00  1.0000000000000000e+00  1.0000000000000000e+00  1.0000000000000000e+00  1.0000000000000000e+00  1.0000000000000000e+00  1.0000000000000000e+00  1.0000000000000000e+00  1.0000000000000000e+00  1.0000000000000000e+00  1.0000000000000000e+00  1.0000000000000000e+00  1.0000000000000000e+00  1.0000000000000000e+00  1.0000000000000000e+00  1.0000000000000000e+00  1.0000000000000000e+00  1.0000000000000000e+00  1.0000000000000000e+00  1.0000000000000000e+00  1.0000000000000000e+00  1.0000000000000000e+00  1.0000000000000000e+00  1.0000000000000000e+00  1.0000000000000000e+00  1.0000000000000000e+00  1.0000000000000000e+00  1.0000000000000000e+00  1.0000000000000000e+00  1.0000000000000000e+00  1.0000000000000000e+00  1.0000000000000000e+00  1.0000000000000000e+00  1.0000000000000000e+00  1.0000000000000000e+00  1.0000000000000000e+00  1.0000000000000000e+00  1.0000000000000000e+00  1.0000000000000000e+00  1.0000000000000000e+00  1.0000000000000000e+00  1.0000000000000000e+00  1.0000000000000000e+00  1.0000000000000000e+00  1.0000000000000000e+00  1.0000000000000000e+00  1.0000000000000000e+00  1.0000000000000000e+00  1.0000000000000000e+00  1.0000000000000000e+00  1.0000000000000000e+00  1.0000000000000000e+00  1.0000000000000000e+00  1.0000000000000000e+00  1.0000000000000000e+00  1.0000000000000000e+00  1.0000000000000000e+00  1.0000000000000000e+00  1.0000000000000000e+00  1.0000000000000000e+00  1.0000000000000000e+00  1.0000000000000000e+00  1.0000000000000000e+00  1.0000000000000000e+00  1.0000000000000000e+00  1.0000000000000000e+00  1.0000000000000000e+00  1.0000000000000000e+00  1.0000000000000000e+00  1.0000000000000000e+00  1.0000000000000000e+00  1.0000000000000000e+00  1.0000000000000000e+00  1.0000000000000000e+00  1.0000000000000000e+00  1.0000000000000000e+00  1.0000000000000000e+00  1.0000000000000000e+00  1.0000000000000000e+00  1.0000000000000000e+00  1.0000000000000000e+00  1.0000000000000000e+00  1.0000000000000000e+00  1.0000000000000000e+00  1.0000000000000000e+00  1.0000000000000000e+00  1.0000000000000000e+00  1.0000000000000000e+00  1.0000000000000000e+00  0.0000000000000000e+00  0.0000000000000000e+00  0.0000000000000000e+00  0.0000000000000000e+00  0.0000000000000000e+00  0.0000000000000000e+00  0.0000000000000000e+00  0.0000000000000000e+00  0.0000000000000000e+00  0.0000000000000000e+00  0.0000000000000000e+00  0.0000000000000000e+00  0.0000000000000000e+00  0.0000000000000000e+00  0.0000000000000000e+00  0.0000000000000000e+00  0.0000000000000000e+00  0.0000000000000000e+00  0.0000000000000000e+00  0.0000000000000000e+00  0.0000000000000000e+00  0.0000000000000000e+00  0.0000000000000000e+00  0.0000000000000000e+00  0.0000000000000000e+00  0.0000000000000000e+00  0.0000000000000000e+00  0.0000000000000000e+00  0.0000000000000000e+00  0.0000000000000000e+00  0.0000000000000000e+00  0.0000000000000000e+00  0.0000000000000000e+00  0.0000000000000000e+00  0.0000000000000000e+00  0.0000000000000000e+00  0.0000000000000000e+00  0.0000000000000000e+00  0.0000000000000000e+00  0.0000000000000000e+00  0.0000000000000000e+00  0.0000000000000000e+00  0.0000000000000000e+00  0.0000000000000000e+00  0.0000000000000000e+00  0.0000000000000000e+00  0.0000000000000000e+00  0.0000000000000000e+00  0.0000000000000000e+00  0.0000000000000000e+00  0.0000000000000000e+00  0.0000000000000000e+00  0.0000000000000000e+00  0.0000000000000000e+00  0.0000000000000000e+00  0.0000000000000000e+00  0.0000000000000000e+00  0.0000000000000000e+00  0.0000000000000000e+00  0.0000000000000000e+00  0.0000000000000000e+00  0.0000000000000000e+00  0.0000000000000000e+00  0.0000000000000000e+00  0.0000000000000000e+00  0.0000000000000000e+00  0.0000000000000000e+00  0.0000000000000000e+00  0.0000000000000000e+00  0.0000000000000000e+00  0.0000000000000000e+00  0.0000000000000000e+00  0.0000000000000000e+00  0.0000000000000000e+00  0.0000000000000000e+00  0.0000000000000000e+00  0.0000000000000000e+00  0.0000000000000000e+00  0.0000000000000000e+00  0.0000000000000000e+00  0.0000000000000000e+00  0.0000000000000000e+00  0.0000000000000000e+00  0.0000000000000000e+00  0.0000000000000000e+00  0.0000000000000000e+00  0.0000000000000000e+00  0.0000000000000000e+00  0.0000000000000000e+00  0.0000000000000000e+00  0.0000000000000000e+00  0.0000000000000000e+00  0.0000000000000000e+00  0.0000000000000000e+00  0.0000000000000000e+00  0.0000000000000000e+00  0.0000000000000000e+00  0.0000000000000000e+00  0.0000000000000000e+00  0.0000000000000000e+00  0.0000000000000000e+00  0.0000000000000000e+00  0.0000000000000000e+00  0.0000000000000000e+00  0.0000000000000000e+00  0.0000000000000000e+00  0.0000000000000000e+00  0.0000000000000000e+00  0.0000000000000000e+00  0.0000000000000000e+00  0.0000000000000000e+00  0.0000000000000000e+00  0.0000000000000000e+00  0.0000000000000000e+00  0.0000000000000000e+00  0.0000000000000000e+00  0.0000000000000000e+00  0.0000000000000000e+00  0.0000000000000000e+00  0.0000000000000000e+00  0.0000000000000000e+00  0.0000000000000000e+00  0.0000000000000000e+00  0.0000000000000000e+00  0.0000000000000000e+00  0.0000000000000000e+00  0.0000000000000000e+00  0.0000000000000000e+00  0.0000000000000000e+00  0.0000000000000000e+00  0.0000000000000000e+00  0.0000000000000000e+00  0.0000000000000000e+00  0.0000000000000000e+00  0.0000000000000000e+00  0.0000000000000000e+00  0.0000000000000000e+00  0.0000000000000000e+00  0.0000000000000000e+00  0.0000000000000000e+00  0.0000000000000000e+00  0.0000000000000000e+00  0.0000000000000000e+00  0.0000000000000000e+00  0.0000000000000000e+00  0.0000000000000000e+00  0.0000000000000000e+00  0.0000000000000000e+00  0.0000000000000000e+00  0.0000000000000000e+00  0.0000000000000000e+00  0.0000000000000000e+00  0.0000000000000000e+00  0.0000000000000000e+00  0.0000000000000000e+00  0.0000000000000000e+00  0.0000000000000000e+00  0.0000000000000000e+00  0.0000000000000000e+00  0.0000000000000000e+00  0.0000000000000000e+00  0.0000000000000000e+00  0.0000000000000000e+00  0.0000000000000000e+00  0.0000000000000000e+00  0.0000000000000000e+00  0.0000000000000000e+00  0.0000000000000000e+00  0.0000000000000000e+00  0.0000000000000000e+00  0.0000000000000000e+00  0.0000000000000000e+00  0.0000000000000000e+00  0.0000000000000000e+00  0.0000000000000000e+00  0.0000000000000000e+00  0.0000000000000000e+00  0.0000000000000000e+00  0.0000000000000000e+00  0.0000000000000000e+00  0.0000000000000000e+00  0.0000000000000000e+00  0.0000000000000000e+00  0.0000000000000000e+00  0.0000000000000000e+00  0.0000000000000000e+00  0.0000000000000000e+00  0.0000000000000000e+00  0.0000000000000000e+00  0.0000000000000000e+00  0.0000000000000000e+00  0.0000000000000000e+00  0.0000000000000000e+00  0.0000000000000000e+00  0.0000000000000000e+00  0.0000000000000000e+00  0.0000000000000000e+00  0.0000000000000000e+00  0.0000000000000000e+00  0.0000000000000000e+00  0.0000000000000000e+00  0.0000000000000000e+00  0.0000000000000000e+00  0.0000000000000000e+00  0.0000000000000000e+00  0.0000000000000000e+00  0.0000000000000000e+00  0.0000000000000000e+00  0.0000000000000000e+00  0.0000000000000000e+00  0.0000000000000000e+00  0.0000000000000000e+00  0.0000000000000000e+00  0.0000000000000000e+00  0.0000000000000000e+00  0.0000000000000000e+00  0.0000000000000000e+00  0.0000000000000000e+00  0.0000000000000000e+00  0.0000000000000000e+00  0.0000000000000000e+00  0.0000000000000000e+00  0.0000000000000000e+00  0.0000000000000000e+00  0.0000000000000000e+00  0.0000000000000000e+00  0.0000000000000000e+00  0.0000000000000000e+00  0.0000000000000000e+00  0.0000000000000000e+00  0.0000000000000000e+00  0.0000000000000000e+00  0.0000000000000000e+00  0.0000000000000000e+00  0.0000000000000000e+00  0.0000000000000000e+00  0.0000000000000000e+00  0.0000000000000000e+00  0.0000000000000000e+00  0.0000000000000000e+00  0.0000000000000000e+00  0.0000000000000000e+00  0.0000000000000000e+00  0.0000000000000000e+00  0.0000000000000000e+00  0.0000000000000000e+00  0.0000000000000000e+00  0.0000000000000000e+00  0.0000000000000000e+00  0.0000000000000000e+00  0.0000000000000000e+00  0.0000000000000000e+00  0.0000000000000000e+00  0.0000000000000000e+00  0.0000000000000000e+00  0.0000000000000000e+00  0.0000000000000000e+00  0.0000000000000000e+00  0.0000000000000000e+00  0.0000000000000000e+00  0.0000000000000000e+00  0.0000000000000000e+00  0.0000000000000000e+00  0.0000000000000000e+00  0.0000000000000000e+00  0.0000000000000000e+00  0.0000000000000000e+00  0.0000000000000000e+00  0.0000000000000000e+00  0.0000000000000000e+00  0.0000000000000000e+00  0.0000000000000000e+00  0.0000000000000000e+00  0.0000000000000000e+00  0.0000000000000000e+00  0.0000000000000000e+00  0.0000000000000000e+00  0.0000000000000000e+00  0.0000000000000000e+00  0.0000000000000000e+00  0.0000000000000000e+00  0.0000000000000000e+00  0.0000000000000000e+00  0.0000000000000000e+00  0.0000000000000000e+00  0.0000000000000000e+00  0.0000000000000000e+00  0.0000000000000000e+00  0.0000000000000000e+00  0.0000000000000000e+00  0.0000000000000000e+00  0.0000000000000000e+00  0.0000000000000000e+00  0.0000000000000000e+00  0.0000000000000000e+00  0.0000000000000000e+00  0.0000000000000000e+00  0.0000000000000000e+00  0.0000000000000000e+00  0.0000000000000000e+00  0.0000000000000000e+00  0.0000000000000000e+00  0.0000000000000000e+00  0.0000000000000000e+00  0.0000000000000000e+00  0.0000000000000000e+00  0.0000000000000000e+00  0.0000000000000000e+00  0.0000000000000000e+00  0.0000000000000000e+00  0.0000000000000000e+00  0.0000000000000000e+00  0.0000000000000000e+00  0.0000000000000000e+00  0.0000000000000000e+00  0.0000000000000000e+00  0.0000000000000000e+00  0.0000000000000000e+00  0.0000000000000000e+00  0.0000000000000000e+00  0.0000000000000000e+00  0.0000000000000000e+00  0.0000000000000000e+00  0.0000000000000000e+00  0.0000000000000000e+00  0.0000000000000000e+00  0.0000000000000000e+00  0.0000000000000000e+00  0.0000000000000000e+00  0.0000000000000000e+00  0.0000000000000000e+00  0.0000000000000000e+00  0.0000000000000000e+00  0.0000000000000000e+00  0.0000000000000000e+00  0.0000000000000000e+00  0.0000000000000000e+00  0.0000000000000000e+00  0.0000000000000000e+00  0.0000000000000000e+00  0.0000000000000000e+00  0.0000000000000000e+00  0.0000000000000000e+00  0.0000000000000000e+00  0.0000000000000000e+00  0.0000000000000000e+00  0.0000000000000000e+00  0.0000000000000000e+00  0.0000000000000000e+00  0.0000000000000000e+00  0.0000000000000000e+00  0.0000000000000000e+00  0.0000000000000000e+00  0.0000000000000000e+00  0.0000000000000000e+00  0.0000000000000000e+00  0.0000000000000000e+00  0.0000000000000000e+00  0.0000000000000000e+00  0.0000000000000000e+00  0.0000000000000000e+00  0.0000000000000000e+00  0.0000000000000000e+00  0.0000000000000000e+00  0.0000000000000000e+00  0.0000000000000000e+00  0.0000000000000000e+00  0.0000000000000000e+00  0.0000000000000000e+00  0.0000000000000000e+00  0.0000000000000000e+00  0.0000000000000000e+00  0.0000000000000000e+00  0.0000000000000000e+00  0.0000000000000000e+00  0.0000000000000000e+00  0.0000000000000000e+00  0.0000000000000000e+00  0.0000000000000000e+00  0.0000000000000000e+00  0.0000000000000000e+00  0.0000000000000000e+00  0.0000000000000000e+00  0.0000000000000000e+00  0.0000000000000000e+00  0.0000000000000000e+00  0.0000000000000000e+00  0.0000000000000000e+00  0.0000000000000000e+00  0.0000000000000000e+00  0.0000000000000000e+00  0.0000000000000000e+00  0.0000000000000000e+00  0.0000000000000000e+00  0.0000000000000000e+00  0.0000000000000000e+00  0.0000000000000000e+00  0.0000000000000000e+00  0.0000000000000000e+00  0.0000000000000000e+00  0.0000000000000000e+00  0.0000000000000000e+00  0.0000000000000000e+00  0.0000000000000000e+00  0.0000000000000000e+00  0.0000000000000000e+00  0.0000000000000000e+00  0.0000000000000000e+00  0.0000000000000000e+00  0.0000000000000000e+00  0.0000000000000000e+00  0.0000000000000000e+00  0.0000000000000000e+00  0.0000000000000000e+00  0.0000000000000000e+00  0.0000000000000000e+00  0.0000000000000000e+00  0.0000000000000000e+00  0.0000000000000000e+00  0.0000000000000000e+00  0.0000000000000000e+00  0.0000000000000000e+00  0.0000000000000000e+00  0.0000000000000000e+00  0.0000000000000000e+00  0.0000000000000000e+00  0.0000000000000000e+00  0.0000000000000000e+00  0.0000000000000000e+00  0.0000000000000000e+00  0.0000000000000000e+00  0.0000000000000000e+00  0.0000000000000000e+00  0.0000000000000000e+00  0.0000000000000000e+00  0.0000000000000000e+00  0.0000000000000000e+00  0.0000000000000000e+00  0.0000000000000000e+00  0.0000000000000000e+00  0.0000000000000000e+00  0.0000000000000000e+00  0.0000000000000000e+00  0.0000000000000000e+00  0.0000000000000000e+00  0.0000000000000000e+00  0.0000000000000000e+00  0.0000000000000000e+00  0.0000000000000000e+00  0.0000000000000000e+00  0.0000000000000000e+00  0.0000000000000000e+00  0.0000000000000000e+00  0.0000000000000000e+00  0.0000000000000000e+00  0.0000000000000000e+00  0.0000000000000000e+00  0.0000000000000000e+00  0.0000000000000000e+00  0.0000000000000000e+00  0.0000000000000000e+00  0.0000000000000000e+00  0.0000000000000000e+00  0.0000000000000000e+00  0.0000000000000000e+00  0.0000000000000000e+00  0.0000000000000000e+00  0.0000000000000000e+00  0.0000000000000000e+00  0.0000000000000000e+00  0.0000000000000000e+00  0.0000000000000000e+00  0.0000000000000000e+00  0.0000000000000000e+00  0.0000000000000000e+00  0.0000000000000000e+00  0.0000000000000000e+00  0.0000000000000000e+00  0.0000000000000000e+00  0.0000000000000000e+00  0.0000000000000000e+00  0.0000000000000000e+00  0.0000000000000000e+00  0.0000000000000000e+00  0.0000000000000000e+00  0.0000000000000000e+00  0.0000000000000000e+00  0.0000000000000000e+00  0.0000000000000000e+00  0.0000000000000000e+00  0.0000000000000000e+00  0.0000000000000000e+00  0.0000000000000000e+00  0.0000000000000000e+00  0.0000000000000000e+00  0.0000000000000000e+00  0.0000000000000000e+00  0.0000000000000000e+00  0.0000000000000000e+00  0.0000000000000000e+00  0.0000000000000000e+00  0.0000000000000000e+00  0.0000000000000000e+00  0.0000000000000000e+00  0.0000000000000000e+00  0.0000000000000000e+00  0.0000000000000000e+00  0.0000000000000000e+00  0.0000000000000000e+00  0.0000000000000000e+00  0.0000000000000000e+00  0.0000000000000000e+00  0.0000000000000000e+00  0.0000000000000000e+00  0.0000000000000000e+00  0.0000000000000000e+00  0.0000000000000000e+00  0.0000000000000000e+00  0.0000000000000000e+00  0.0000000000000000e+00  0.0000000000000000e+00  0.0000000000000000e+00  0.0000000000000000e+00  0.0000000000000000e+00  0.0000000000000000e+00  0.0000000000000000e+00  0.0000000000000000e+00  0.0000000000000000e+00  0.0000000000000000e+00  0.0000000000000000e+00  0.0000000000000000e+00  0.0000000000000000e+00  0.0000000000000000e+00  0.0000000000000000e+00  0.0000000000000000e+00  0.0000000000000000e+00  0.0000000000000000e+00  0.0000000000000000e+00  0.0000000000000000e+00  0.0000000000000000e+00  0.0000000000000000e+00  0.0000000000000000e+00  0.0000000000000000e+00  0.0000000000000000e+00  0.0000000000000000e+00  0.0000000000000000e+00  0.0000000000000000e+00  0.0000000000000000e+00  0.0000000000000000e+00  0.0000000000000000e+00  0.0000000000000000e+00  0.0000000000000000e+00  0.0000000000000000e+00  0.0000000000000000e+00  0.0000000000000000e+00  0.0000000000000000e+00  0.0000000000000000e+00  0.0000000000000000e+00  0.0000000000000000e+00  0.0000000000000000e+00  0.0000000000000000e+00  0.0000000000000000e+00  0.0000000000000000e+00  0.0000000000000000e+00  0.0000000000000000e+00  0.0000000000000000e+00  0.0000000000000000e+00  0.0000000000000000e+00  0.0000000000000000e+00  0.0000000000000000e+00  0.0000000000000000e+00  0.0000000000000000e+00  0.0000000000000000e+00  0.0000000000000000e+00  0.0000000000000000e+00  0.0000000000000000e+00  0.0000000000000000e+00  0.0000000000000000e+00  0.0000000000000000e+00  0.0000000000000000e+00  0.0000000000000000e+00  0.0000000000000000e+00  0.0000000000000000e+00  0.0000000000000000e+00  0.0000000000000000e+00  0.0000000000000000e+00  0.0000000000000000e+00  0.0000000000000000e+00  0.0000000000000000e+00  0.0000000000000000e+00  0.0000000000000000e+00  0.0000000000000000e+00  0.0000000000000000e+00  0.0000000000000000e+00  0.0000000000000000e+00  0.0000000000000000e+00  0.0000000000000000e+00  0.0000000000000000e+00  0.0000000000000000e+00  0.0000000000000000e+00  0.0000000000000000e+00  0.0000000000000000e+00  0.0000000000000000e+00  0.0000000000000000e+00  0.0000000000000000e+00  0.0000000000000000e+00  0.0000000000000000e+00  0.000000000000000